thermo_log      ../DEM/post/thermo.txt

atom_style      granular
atom_modify     map array
communicate     single vel yes

boundary        m m m
newton          off

units           si
processors      2 2 1

# read the restart file
read_restart    ../DEM/post/restart/liggghts.restart
WARNING: Restart file used different 3d processor grid (/home/user/CFDEM/LIGGGHTS/src/read_restart.cpp:530)
WARNING: Restart file used different boundary settings, using restart file values (/home/user/CFDEM/LIGGGHTS/src/read_restart.cpp:588)
  orthogonal box = (0 0 0) to (0.2 0.1 0.3)
  2 by 2 by 1 MPI processor grid
  3883 atoms

neighbor        0.0005 bin
neigh_modify    delay 0

# Material properties required for granular pair styles

fix         m1 all property/global youngsModulus peratomtype 5.e6
fix         m2 all property/global poissonsRatio peratomtype 0.45
fix         m3 all property/global coefficientRestitution peratomtypepair 1 0.3
fix         m4 all property/global coefficientFriction peratomtypepair 1 0.5

# pair style
pair_style  gran model hertz tangential history # Hertzian without cohesion
pair_coeff  * *

# timestep, gravity
timestep    0.00001
fix         gravi all gravity 9.81 vector 0.0 0.0 -1.0

# walls
fix     zwalls1  all wall/gran model hertz tangential history primitive type 1 zplane 0
Resetting global state of Fix history_zwalls1_0 Style property/atom from restart file info
Resetting per-atom state of Fix history_zwalls1_0 Style property/atom from restart file info
fix     zwalls2  all wall/gran model hertz tangential history primitive type 1 zplane 0.3
Resetting global state of Fix history_zwalls2_0 Style property/atom from restart file info
Resetting per-atom state of Fix history_zwalls2_0 Style property/atom from restart file info
fix     xwalls1  all wall/gran model hertz tangential history primitive type 1 xplane 0
Resetting global state of Fix history_xwalls1_0 Style property/atom from restart file info
Resetting per-atom state of Fix history_xwalls1_0 Style property/atom from restart file info
fix     xwalls2  all wall/gran model hertz tangential history primitive type 1 xplane 0.2
Resetting global state of Fix history_xwalls2_0 Style property/atom from restart file info
Resetting per-atom state of Fix history_xwalls2_0 Style property/atom from restart file info
fix     ywalls1  all wall/gran model hertz tangential history primitive type 1 yplane 0
Resetting global state of Fix history_ywalls1_0 Style property/atom from restart file info
Resetting per-atom state of Fix history_ywalls1_0 Style property/atom from restart file info
fix     ywalls2  all wall/gran model hertz tangential history primitive type 1 yplane 0.1
Resetting global state of Fix history_ywalls2_0 Style property/atom from restart file info
Resetting per-atom state of Fix history_ywalls2_0 Style property/atom from restart file info
#fix cfdmesh all mesh/surface file ../CFD/mesh.stl type 1
#fix walls all wall/gran model hertz tangential history mesh n_meshes 1 meshes cfdmesh

# change the particles density
set         group all density 2500
  3883 settings made for density

# cfd coupling
fix         cfd all couple/cfd couple_every 100 mpi
nevery as specified in LIGGGHTS is overriden by calling external program (/home/user/CFDEM/LIGGGHTS/src/cfd_datacoupling_mpi.cpp:56)
fix         cfd2 all couple/cfd/force/implicit
#fix         cfd2 all couple/cfd/force/accumulator RongDrag 10 1.5e-3
#fix         cfd2 all couple/cfd/force/implicit/accumulated #CrankNicolson 0.5

# apply nve integration to all particles that are inserted as single particles
fix         integr all nve/sphere

# center of mass
compute     centerOfMass all com

# compute total dragforce
compute     dragtotal all reduce sum f_dragforce[1] f_dragforce[2] f_dragforce[3]

# screen output
compute         rke all erotate/sphere
thermo_style    custom step atoms ke c_rke vol c_centerOfMass[3] c_dragtotal[1] c_dragtotal[2] c_dragtotal[3]
thermo          10
thermo_modify   lost ignore norm no
compute_modify  thermo_temp dynamic yes

dump            dmp all custom 10000 ../DEM/post/dump*.liggghts_run id type x y z vx vy vz fx fy fz f_dragforce[1] f_dragforce[2] f_dragforce[3] radius
#dump		dmpStl all mesh/stl 500 ../DEM/post/dump*.stl

run             1
Resetting global state of Fix contacthistory Style contacthistory from restart file info
Resetting per-atom state of Fix contacthistory Style contacthistory from restart file info
Memory usage per processor = 7.1604 Mbytes
Step Atoms KinEng rke Volume centerOf dragtota dragtota dragtota 
   30000     3883 2.9328149e-07 2.9974091e-07        0.006 0.0072691866            0            0            0 
   30001     3883 2.9368625e-07 2.9960696e-07        0.006 0.0072691864            0            0            0 
Loop time of 0.000484079 on 4 procs for 1 steps with 3883 atoms
Max time of 0.000485477 on 4 procs for 1 steps with 3883 atoms

Pair  time (%) = 0.000160654 (33.1875)
Max Pair time (ib) = 0.000321868 (100.349)
Neigh time (%) = 0 (0)
Max Neigh time (ib) = 0 (0)
Comm  time (%) = 1.44525e-05 (2.98556)
Max Comm time (ib) = 2.369e-05 (63.9163)
Outpt time (%) = 0.000247719 (51.1731)
Max Outpt time (ib) = 0.000441987 (78.4231)
Other time (%) = 6.12545e-05 (12.6538)
Max Other time (ib) = 8.5049e-05 (38.8453)

Nlocal:    970.75 ave 1942 max 0 min
Histogram: 2 0 0 0 0 0 0 0 0 2
Nghost:    62.5 ave 127 max 0 min
Histogram: 2 0 0 0 0 0 0 0 0 2
Neighs:    3916.75 ave 7854 max 0 min
Histogram: 2 0 0 0 0 0 0 0 0 2

Total # of neighbors = 15667
Ave neighs/atom = 4.03477
Neighbor list builds = 0
Dangerous builds = 0
run 50    
Memory usage per processor = 7.16041 Mbytes
Step Atoms KinEng rke Volume centerOf dragtota dragtota dragtota 
   30001     3883 2.9368625e-07 2.9960696e-07        0.006 0.0072691864            0            0            0 
   30010     3883 3.1157319e-07 3.0012396e-07        0.006 0.0072691846            0            0            0 
   30020     3883 3.4104029e-07 3.0263304e-07        0.006  0.007269182            0            0            0 
   30030     3883 3.7247953e-07 3.0712159e-07        0.006 0.0072691789            0            0            0 
   30040     3883 4.0426239e-07 3.1239288e-07        0.006 0.0072691752            0            0            0 
   30050     3883 4.3339538e-07 3.1445767e-07        0.006 0.0072691707            0            0            0 
   30051     3883 4.3593784e-07 3.1450564e-07        0.006 0.0072691702            0            0            0 
Loop time of 0.0197789 on 4 procs for 50 steps with 3883 atoms
Max time of 0.0197792 on 4 procs for 50 steps with 3883 atoms

Pair  time (%) = 0.00796367 (40.2634)
Max Pair time (ib) = 0.0159988 (100.898)
Neigh time (%) = 0 (0)
Max Neigh time (ib) = 0 (0)
Comm  time (%) = 0.000194041 (0.98105)
Max Comm time (ib) = 0.000375267 (93.3957)
Outpt time (%) = 0.00146694 (7.41667)
Max Outpt time (ib) = 0.00261363 (78.1696)
Other time (%) = 0.0101543 (51.3389)
Max Other time (ib) = 0.017172 (69.1107)

Nlocal:    970.75 ave 1942 max 0 min
Histogram: 2 0 0 0 0 0 0 0 0 2
Nghost:    62.5 ave 127 max 0 min
Histogram: 2 0 0 0 0 0 0 0 0 2
Neighs:    3916.75 ave 7854 max 0 min
Histogram: 2 0 0 0 0 0 0 0 0 2

Total # of neighbors = 15667
Ave neighs/atom = 4.03477
Neighbor list builds = 0
Dangerous builds = 0
run 50 pre no post no
Step Atoms KinEng rke Volume centerOf dragtota dragtota dragtota 
   30051     3883 4.3593784e-07 3.1450564e-07        0.006 0.0072691702  0.017378387 -1.7496279e-19   0.38799576 
   30060     3883 4.5512218e-07 3.1666709e-07        0.006 0.0072691791  0.017378387 -1.7496279e-19   0.38799576 
   30070     3883 4.8832649e-07 3.213802e-07        0.006  0.007269223  0.017378387 -1.7496279e-19   0.38799576 
   30080     3883 5.3346591e-07 3.295334e-07        0.006    0.0072693  0.017378387 -1.7496279e-19   0.38799576 
   30090     3883 5.8776675e-07 3.3888373e-07        0.006 0.0072694075  0.017378387 -1.7496279e-19   0.38799576 
CFD Coupling established at step30100
   30100     3883 6.4836127e-07 3.4774842e-07        0.006 0.0072695426  0.017378387 -1.7496279e-19   0.38799576 
   30101     3883 6.5469257e-07 3.4860769e-07        0.006 0.0072695575  0.017378387 -1.7496279e-19   0.38799576 
Loop time of 0.02697 on 4 procs for 50 steps with 3883 atoms
Max time of 0.0269701 on 4 procs for 50 steps with 3883 atoms
run 50 pre no post no
Step Atoms KinEng rke Volume centerOf dragtota dragtota dragtota 
   30101     3883 6.5469257e-07 3.4860769e-07        0.006 0.0072695575  -0.18918074 -0.0051509108   0.30761191 
   30110     3883 7.396502e-07 3.5634968e-07        0.006 0.0072696998  -0.18918074 -0.0051509108   0.30761191 
   30120     3883 8.4626795e-07 3.6539235e-07        0.006 0.0072698715  -0.18918074 -0.0051509108   0.30761191 
   30130     3883 9.6275195e-07 3.7500655e-07        0.006 0.0072700554  -0.18918074 -0.0051509108   0.30761191 
   30140     3883 1.0878525e-06 3.8477749e-07        0.006 0.0072702497  -0.18918074 -0.0051509108   0.30761191 
   30150     3883 1.2202701e-06 3.9557528e-07        0.006 0.0072704526  -0.18918074 -0.0051509108   0.30761191 
   30151     3883 1.2338889e-06 3.9667817e-07        0.006 0.0072704733  -0.18918074 -0.0051509108   0.30761191 
Loop time of 0.0268996 on 4 procs for 50 steps with 3883 atoms
Max time of 0.0269 on 4 procs for 50 steps with 3883 atoms
run 50 pre no post no
Step Atoms KinEng rke Volume centerOf dragtota dragtota dragtota 
   30151     3883 1.2338889e-06 3.9667817e-07        0.006 0.0072704733  -0.26425325 -0.0023847192   0.28248888 
   30160     3883 1.3676198e-06 4.069325e-07        0.006 0.0072706614  -0.26425325 -0.0023847192   0.28248888 
   30170     3883 1.5263063e-06 4.1904675e-07        0.006 0.0072708729  -0.26425325 -0.0023847192   0.28248888 
   30180     3883 1.6941721e-06 4.3198498e-07        0.006  0.007271086  -0.26425325 -0.0023847192   0.28248888 
   30190     3883 1.8703419e-06 4.4596936e-07        0.006 0.0072712993  -0.26425325 -0.0023847192   0.28248888 
CFD Coupling established at step30200
   30200     3883 2.0543855e-06 4.6116979e-07        0.006 0.0072715118  -0.26425325 -0.0023847192   0.28248888 
   30201     3883 2.0732145e-06 4.6272797e-07        0.006 0.0072715329  -0.26425325 -0.0023847192   0.28248888 
Loop time of 0.0203 on 4 procs for 50 steps with 3883 atoms
Max time of 0.0203003 on 4 procs for 50 steps with 3883 atoms
run 50 pre no post no
Step Atoms KinEng rke Volume centerOf dragtota dragtota dragtota 
   30201     3883 2.0732145e-06 4.6272797e-07        0.006 0.0072715329  -0.28082292 -0.00038926313   0.29743502 
   30210     3883 2.262431e-06 4.7701337e-07        0.006  0.007271723  -0.28082292 -0.00038926313   0.29743502 
   30220     3883 2.4818419e-06 4.944504e-07        0.006 0.0072719327  -0.28082292 -0.00038926313   0.29743502 
   30230     3883 2.709794e-06 5.1312669e-07        0.006 0.0072721403  -0.28082292 -0.00038926313   0.29743502 
   30240     3883 2.9461607e-06 5.3328824e-07        0.006 0.0072723447  -0.28082292 -0.00038926313   0.29743502 
   30250     3883 3.1910008e-06 5.5465861e-07        0.006 0.0072725452  -0.28082292 -0.00038926313   0.29743502 
   30251     3883 3.2159627e-06 5.5685688e-07        0.006  0.007272565  -0.28082292 -0.00038926313   0.29743502 
Loop time of 0.0271521 on 4 procs for 50 steps with 3883 atoms
Max time of 0.0271522 on 4 procs for 50 steps with 3883 atoms
run 50 pre no post no
Step Atoms KinEng rke Volume centerOf dragtota dragtota dragtota 
   30251     3883 3.2159627e-06 5.5685688e-07        0.006  0.007272565  -0.28552126 -0.00062240463   0.29238993 
   30260     3883 3.4522878e-06 5.7680572e-07        0.006 0.0072727408  -0.28552126 -0.00062240463   0.29238993 
   30270     3883 3.7243229e-06 6.0014311e-07        0.006 0.0072729305  -0.28552126 -0.00062240463   0.29238993 
   30280     3883 4.0057365e-06 6.2459768e-07        0.006 0.0072731135  -0.28552126 -0.00062240463   0.29238993 
   30290     3883 4.2964056e-06 6.4995917e-07        0.006 0.0072732893  -0.28552126 -0.00062240463   0.29238993 
CFD Coupling established at step30300
   30300     3883 4.5963912e-06 6.7586907e-07        0.006 0.0072734574  -0.28552126 -0.00062240463   0.29238993 
   30301     3883 4.6268699e-06 6.7844394e-07        0.006 0.0072734737  -0.28552126 -0.00062240463   0.29238993 
Loop time of 0.0270934 on 4 procs for 50 steps with 3883 atoms
Max time of 0.0270936 on 4 procs for 50 steps with 3883 atoms
run 50 pre no post no
Step Atoms KinEng rke Volume centerOf dragtota dragtota dragtota 
   30301     3883 4.6268699e-06 6.7844394e-07        0.006 0.0072734737  -0.30591695 -0.0037467903    0.2921905 
   30310     3883 4.9051884e-06 7.0246701e-07        0.006  0.007273617  -0.30591695 -0.0037467903    0.2921905 
   30320     3883 5.2251701e-06 7.3039629e-07        0.006 0.0072737676  -0.30591695 -0.0037467903    0.2921905 
   30330     3883 5.5561304e-06 7.5831392e-07        0.006 0.0072739085  -0.30591695 -0.0037467903    0.2921905 
   30340     3883 5.8975878e-06 7.8778882e-07        0.006 0.0072740392  -0.30591695 -0.0037467903    0.2921905 
   30350     3883 6.2499266e-06 8.1817002e-07        0.006  0.007274159  -0.30591695 -0.0037467903    0.2921905 
   30351     3883 6.2856356e-06 8.2129033e-07        0.006 0.0072741704  -0.30591695 -0.0037467903    0.2921905 
Loop time of 0.0290203 on 4 procs for 50 steps with 3883 atoms
Max time of 0.0290205 on 4 procs for 50 steps with 3883 atoms
run 50 pre no post no
Step Atoms KinEng rke Volume centerOf dragtota dragtota dragtota 
   30351     3883 6.2856356e-06 8.2129033e-07        0.006 0.0072741704  -0.29350084 0.0041515201   0.29937987 
   30360     3883 6.6189648e-06 8.4973592e-07        0.006 0.0072742677  -0.29350084 0.0041515201   0.29937987 
   30370     3883 7.0010688e-06 8.8269226e-07        0.006 0.0072743652  -0.29350084 0.0041515201   0.29937987 
   30380     3883 7.3953838e-06 9.1683929e-07        0.006  0.007274451  -0.29350084 0.0041515201   0.29937987 
   30390     3883 7.8017953e-06 9.5271253e-07        0.006 0.0072745248  -0.29350084 0.0041515201   0.29937987 
CFD Coupling established at step30400
   30400     3883 8.2200485e-06 9.9096734e-07        0.006 0.0072745864  -0.29350084 0.0041515201   0.29937987 
   30401     3883 8.262482e-06 9.9491289e-07        0.006 0.0072745919  -0.29350084 0.0041515201   0.29937987 
Loop time of 0.0263089 on 4 procs for 50 steps with 3883 atoms
Max time of 0.0263091 on 4 procs for 50 steps with 3883 atoms
run 50 pre no post no
Step Atoms KinEng rke Volume centerOf dragtota dragtota dragtota 
   30401     3883 8.262482e-06 9.9491289e-07        0.006 0.0072745919  -0.29153495 0.0076965472   0.29749761 
   30410     3883 8.6648385e-06 1.032091e-06        0.006 0.0072746354  -0.29153495 0.0076965472   0.29749761 
   30420     3883 9.1255769e-06 1.0747276e-06        0.006 0.0072746712  -0.29153495 0.0076965472   0.29749761 
   30430     3883 9.6002391e-06 1.1198758e-06        0.006 0.0072746937  -0.29153495 0.0076965472   0.29749761 
   30440     3883 1.0088182e-05 1.1665841e-06        0.006 0.0072747028  -0.29153495 0.0076965472   0.29749761 
   30450     3883 1.0588703e-05 1.2148027e-06        0.006 0.0072746981  -0.29153495 0.0076965472   0.29749761 
   30451     3883 1.0639441e-05 1.2197332e-06        0.006 0.0072746969  -0.29153495 0.0076965472   0.29749761 
Loop time of 0.0260882 on 4 procs for 50 steps with 3883 atoms
Max time of 0.0260883 on 4 procs for 50 steps with 3883 atoms
run 50 pre no post no
Step Atoms KinEng rke Volume centerOf dragtota dragtota dragtota 
   30451     3883 1.0639441e-05 1.2197332e-06        0.006 0.0072746969    -0.319467 0.0029971973   0.32859196 
   30460     3883 1.1125477e-05 1.2644888e-06        0.006 0.0072746808    -0.319467 0.0029971973   0.32859196 
   30470     3883 1.1683127e-05 1.3164014e-06        0.006 0.0072746524    -0.319467 0.0029971973   0.32859196 
   30480     3883 1.2253469e-05 1.3684888e-06        0.006 0.0072746127    -0.319467 0.0029971973   0.32859196 
   30490     3883 1.2839017e-05 1.4211136e-06        0.006 0.0072745614    -0.319467 0.0029971973   0.32859196 
CFD Coupling established at step30500
   30500     3883 1.3439751e-05 1.4746161e-06        0.006 0.0072744984    -0.319467 0.0029971973   0.32859196 
   30501     3883 1.3500344e-05 1.4799411e-06        0.006 0.0072744914    -0.319467 0.0029971973   0.32859196 
Loop time of 0.0196329 on 4 procs for 50 steps with 3883 atoms
Max time of 0.019633 on 4 procs for 50 steps with 3883 atoms
run 50 pre no post no
Step Atoms KinEng rke Volume centerOf dragtota dragtota dragtota 
   30501     3883 1.3500344e-05 1.4799411e-06        0.006 0.0072744914  -0.28975714 -0.019210213     0.263052 
   30510     3883 1.4011106e-05 1.5292095e-06        0.006 0.0072744211  -0.28975714 -0.019210213     0.263052 
   30520     3883 1.4593337e-05 1.5854032e-06        0.006 0.0072743252  -0.28975714 -0.019210213     0.263052 
   30530     3883 1.5190765e-05 1.6430065e-06        0.006 0.0072742107  -0.28975714 -0.019210213     0.263052 
   30540     3883 1.5801549e-05 1.7018434e-06        0.006  0.007274078  -0.28975714 -0.019210213     0.263052 
   30550     3883 1.6428104e-05 1.7620325e-06        0.006 0.0072739271  -0.28975714 -0.019210213     0.263052 
   30551     3883 1.649162e-05 1.7680577e-06        0.006  0.007273911  -0.28975714 -0.019210213     0.263052 
Loop time of 0.0260408 on 4 procs for 50 steps with 3883 atoms
Max time of 0.0260412 on 4 procs for 50 steps with 3883 atoms
run 50 pre no post no
Step Atoms KinEng rke Volume centerOf dragtota dragtota dragtota 
   30551     3883 1.649162e-05 1.7680577e-06        0.006  0.007273911  -0.32065297 -0.023767158   0.29009221 
   30560     3883 1.707634e-05 1.8237249e-06        0.006 0.0072737594  -0.32065297 -0.023767158   0.29009221 
   30570     3883 1.7743143e-05 1.8876974e-06        0.006 0.0072735767  -0.32065297 -0.023767158   0.29009221 
   30580     3883 1.8425647e-05 1.9537119e-06        0.006 0.0072733795  -0.32065297 -0.023767158   0.29009221 
   30590     3883 1.9121632e-05 2.0221899e-06        0.006  0.007273168  -0.32065297 -0.023767158   0.29009221 
CFD Coupling established at step30600
   30600     3883 1.9829738e-05 2.0931072e-06        0.006 0.0072729427  -0.32065297 -0.023767158   0.29009221 
   30601     3883 1.9901278e-05 2.1002962e-06        0.006 0.0072729194  -0.32065297 -0.023767158   0.29009221 
Loop time of 0.027195 on 4 procs for 50 steps with 3883 atoms
Max time of 0.0271955 on 4 procs for 50 steps with 3883 atoms
run 50 pre no post no
Step Atoms KinEng rke Volume centerOf dragtota dragtota dragtota 
   30601     3883 1.9901278e-05 2.1002962e-06        0.006 0.0072729194   -0.3134439 -0.025095061   0.26582532 
   30610     3883 2.0512871e-05 2.1653727e-06        0.006 0.0072727029   -0.3134439 -0.025095061   0.26582532 
   30620     3883 2.1204134e-05 2.2362184e-06        0.006 0.0072724475   -0.3134439 -0.025095061   0.26582532 
   30630     3883 2.1908247e-05 2.3114201e-06        0.006 0.0072721769   -0.3134439 -0.025095061   0.26582532 
   30640     3883 2.2624723e-05 2.3881833e-06        0.006 0.0072718915   -0.3134439 -0.025095061   0.26582532 
   30650     3883 2.3352934e-05 2.4661194e-06        0.006 0.0072715918   -0.3134439 -0.025095061   0.26582532 
   30651     3883 2.342646e-05 2.474227e-06        0.006 0.0072715611   -0.3134439 -0.025095061   0.26582532 
Loop time of 0.035337 on 4 procs for 50 steps with 3883 atoms
Max time of 0.0353371 on 4 procs for 50 steps with 3883 atoms
run 50 pre no post no
Step Atoms KinEng rke Volume centerOf dragtota dragtota dragtota 
   30651     3883 2.342646e-05 2.474227e-06        0.006 0.0072715611  -0.28150743 -0.024691745   0.29528624 
   30660     3883 2.4092928e-05 2.5473287e-06        0.006 0.0072712792  -0.28150743 -0.024691745   0.29528624 
   30670     3883 2.4845476e-05 2.6326598e-06        0.006  0.007270956  -0.28150743 -0.024691745   0.29528624 
   30680     3883 2.5607143e-05 2.7184706e-06        0.006 0.0072706224  -0.28150743 -0.024691745   0.29528624 
   30690     3883 2.6377797e-05 2.8077256e-06        0.006 0.0072702789  -0.28150743 -0.024691745   0.29528624 
CFD Coupling established at step30700
   30700     3883 2.715552e-05 2.8993254e-06        0.006 0.0072699257  -0.28150743 -0.024691745   0.29528624 
   30701     3883 2.7233936e-05 2.9086162e-06        0.006 0.0072698899  -0.28150743 -0.024691745   0.29528624 
Loop time of 0.0261483 on 4 procs for 50 steps with 3883 atoms
Max time of 0.0261487 on 4 procs for 50 steps with 3883 atoms
run 50 pre no post no
Step Atoms KinEng rke Volume centerOf dragtota dragtota dragtota 
   30701     3883 2.7233936e-05 2.9086162e-06        0.006 0.0072698899  -0.26469771 -0.027433779    0.2904934 
   30710     3883 2.7980436e-05 2.993993e-06        0.006 0.0072695631  -0.26469771 -0.027433779    0.2904934 
   30720     3883 2.8825476e-05 3.0903237e-06        0.006 0.0072691909  -0.26469771 -0.027433779    0.2904934 
   30730     3883 2.9686595e-05 3.1873353e-06        0.006 0.0072688095  -0.26469771 -0.027433779    0.2904934 
   30740     3883 3.0563443e-05 3.281378e-06        0.006 0.0072684191  -0.26469771 -0.027433779    0.2904934 
   30750     3883 3.1451142e-05 3.3752706e-06        0.006 0.0072680202  -0.26469771 -0.027433779    0.2904934 
   30751     3883 3.1539986e-05 3.3843968e-06        0.006 0.0072679798  -0.26469771 -0.027433779    0.2904934 
Loop time of 0.0263766 on 4 procs for 50 steps with 3883 atoms
Max time of 0.0263768 on 4 procs for 50 steps with 3883 atoms
run 50 pre no post no
Step Atoms KinEng rke Volume centerOf dragtota dragtota dragtota 
   30751     3883 3.1539986e-05 3.3843968e-06        0.006 0.0072679798   -0.2543789 -0.0072263464   0.27062387 
   30760     3883 3.2258668e-05 3.4706481e-06        0.006 0.0072676122   -0.2543789 -0.0072263464   0.27062387 
   30770     3883 3.306495e-05 3.5640976e-06        0.006 0.0072671941   -0.2543789 -0.0072263464   0.27062387 
   30780     3883 3.3884735e-05 3.6598876e-06        0.006 0.0072667661   -0.2543789 -0.0072263464   0.27062387 
   30790     3883 3.471557e-05 3.7567815e-06        0.006 0.0072663287   -0.2543789 -0.0072263464   0.27062387 
CFD Coupling established at step30800
   30800     3883 3.5555689e-05 3.8449882e-06        0.006  0.007265882   -0.2543789 -0.0072263464   0.27062387 
   30801     3883 3.5639545e-05 3.853388e-06        0.006 0.0072658368   -0.2543789 -0.0072263464   0.27062387 
Loop time of 0.0276612 on 4 procs for 50 steps with 3883 atoms
Max time of 0.0276614 on 4 procs for 50 steps with 3883 atoms
run 50 pre no post no
Step Atoms KinEng rke Volume centerOf dragtota dragtota dragtota 
   30801     3883 3.5639545e-05 3.853388e-06        0.006 0.0072658368  -0.22791776  0.061587977   0.28892272 
   30810     3883 3.6353294e-05 3.9288803e-06        0.006 0.0072654272  -0.22791776  0.061587977   0.28892272 
   30820     3883 3.715729e-05 4.0143551e-06        0.006 0.0072649658  -0.22791776  0.061587977   0.28892272 
   30830     3883 3.7978509e-05 4.1043766e-06        0.006 0.0072644981  -0.22791776  0.061587977   0.28892272 
   30840     3883 3.8815064e-05 4.1980414e-06        0.006 0.0072640245  -0.22791776  0.061587977   0.28892272 
   30850     3883 3.9667114e-05 4.2955157e-06        0.006 0.0072635453  -0.22791776  0.061587977   0.28892272 
   30851     3883 3.9752956e-05 4.3051484e-06        0.006 0.0072634971  -0.22791776  0.061587977   0.28892272 
Loop time of 0.0189884 on 4 procs for 50 steps with 3883 atoms
Max time of 0.0189886 on 4 procs for 50 steps with 3883 atoms
run 50 pre no post no
Step Atoms KinEng rke Volume centerOf dragtota dragtota dragtota 
   30851     3883 3.9752956e-05 4.3051484e-06        0.006 0.0072634971  -0.25900714  0.072436677    0.3010156 
   30860     3883 4.0475539e-05 4.3913758e-06        0.006 0.0072630613  -0.25900714  0.072436677    0.3010156 
   30870     3883 4.1285323e-05 4.489926e-06        0.006 0.0072625733  -0.25900714  0.072436677    0.3010156 
   30880     3883 4.2103758e-05 4.5752706e-06        0.006 0.0072620817  -0.25900714  0.072436677    0.3010156 
   30890     3883 4.2928327e-05 4.6708183e-06        0.006 0.0072615871  -0.25900714  0.072436677    0.3010156 
CFD Coupling established at step30900
   30900     3883 4.3763747e-05  4.77369e-06        0.006 0.0072610899  -0.25900714  0.072436677    0.3010156 
   30901     3883 4.3848098e-05 4.7842324e-06        0.006 0.0072610401  -0.25900714  0.072436677    0.3010156 
Loop time of 0.0252526 on 4 procs for 50 steps with 3883 atoms
Max time of 0.025253 on 4 procs for 50 steps with 3883 atoms
run 50 pre no post no
Step Atoms KinEng rke Volume centerOf dragtota dragtota dragtota 
   30901     3883 4.3848098e-05 4.7842324e-06        0.006 0.0072610401   -0.2407778  0.073149446   0.30111438 
   30910     3883 4.4652444e-05 4.8720498e-06        0.006 0.0072605905   -0.2407778  0.073149446   0.30111438 
   30920     3883 4.5560035e-05 4.9618168e-06        0.006 0.0072600892   -0.2407778  0.073149446   0.30111438 
   30930     3883 4.648404e-05 5.0479932e-06        0.006 0.0072595862   -0.2407778  0.073149446   0.30111438 
   30940     3883 4.7420049e-05 5.1391053e-06        0.006 0.0072590817   -0.2407778  0.073149446   0.30111438 
   30950     3883 4.8368568e-05 5.2360453e-06        0.006 0.0072585757   -0.2407778  0.073149446   0.30111438 
   30951     3883 4.8464041e-05 5.2459548e-06        0.006  0.007258525   -0.2407778  0.073149446   0.30111438 
Loop time of 0.0252789 on 4 procs for 50 steps with 3883 atoms
Max time of 0.025279 on 4 procs for 50 steps with 3883 atoms
run 50 pre no post no
Step Atoms KinEng rke Volume centerOf dragtota dragtota dragtota 
   30951     3883 4.8464041e-05 5.2459548e-06        0.006  0.007258525  -0.22625021  0.028670028   0.29196235 
   30960     3883 4.9240853e-05 5.3368305e-06        0.006 0.0072580681  -0.22625021  0.028670028   0.29196235 
   30970     3883 5.0116765e-05 5.4392179e-06        0.006 0.0072575584  -0.22625021  0.028670028   0.29196235 
   30980     3883 5.1006023e-05 5.5393182e-06        0.006 0.0072570468  -0.22625021  0.028670028   0.29196235 
   30990     3883 5.1882719e-05 5.6404001e-06        0.006 0.0072565337  -0.22625021  0.028670028   0.29196235 
CFD Coupling established at step31000
   31000     3883 5.2759968e-05 5.7405019e-06        0.006 0.0072560194  -0.22625021  0.028670028   0.29196235 
   31001     3883 5.2848254e-05 5.7505209e-06        0.006 0.0072559679  -0.22625021  0.028670028   0.29196235 
Loop time of 0.0207283 on 4 procs for 50 steps with 3883 atoms
Max time of 0.0207285 on 4 procs for 50 steps with 3883 atoms
run 50 pre no post no
Step Atoms KinEng rke Volume centerOf dragtota dragtota dragtota 
   31001     3883 5.2848254e-05 5.7505209e-06        0.006 0.0072559679  -0.22125165  0.026404834   0.26989887 
   31010     3883 5.3603274e-05 5.8388467e-06        0.006 0.0072555032  -0.22125165  0.026404834   0.26989887 
   31020     3883 5.445398e-05 5.9347223e-06        0.006 0.0072549839  -0.22125165  0.026404834   0.26989887 
   31030     3883 5.5304632e-05 6.0292283e-06        0.006  0.007254462  -0.22125165  0.026404834   0.26989887 
   31040     3883 5.6163873e-05 6.1286214e-06        0.006  0.007253938  -0.22125165  0.026404834   0.26989887 
   31050     3883 5.703423e-05 6.2342255e-06        0.006 0.0072534122  -0.22125165  0.026404834   0.26989887 
   31051     3883 5.7122024e-05 6.244762e-06        0.006 0.0072533595  -0.22125165  0.026404834   0.26989887 
Loop time of 0.0260115 on 4 procs for 50 steps with 3883 atoms
Max time of 0.0260116 on 4 procs for 50 steps with 3883 atoms
run 50 pre no post no
Step Atoms KinEng rke Volume centerOf dragtota dragtota dragtota 
   31051     3883 5.7122024e-05 6.244762e-06        0.006 0.0072533595  -0.27880756  0.086977321   0.35800129 
   31060     3883 5.8029501e-05 6.3437501e-06        0.006 0.0072528881  -0.27880756  0.086977321   0.35800129 
   31070     3883 5.9065833e-05 6.4638996e-06        0.006 0.0072523715  -0.27880756  0.086977321   0.35800129 
   31080     3883 6.0121689e-05 6.5852895e-06        0.006 0.0072518621  -0.27880756  0.086977321   0.35800129 
   31090     3883 6.1195557e-05 6.7110622e-06        0.006 0.0072513598  -0.27880756  0.086977321   0.35800129 
CFD Coupling established at step31100
   31100     3883 6.2279788e-05 6.8327635e-06        0.006 0.0072508643  -0.27880756  0.086977321   0.35800129 
   31101     3883 6.2388567e-05 6.8457814e-06        0.006 0.0072508151  -0.27880756  0.086977321   0.35800129 
Loop time of 0.0256211 on 4 procs for 50 steps with 3883 atoms
Max time of 0.0256213 on 4 procs for 50 steps with 3883 atoms
run 50 pre no post no
Step Atoms KinEng rke Volume centerOf dragtota dragtota dragtota 
   31101     3883 6.2388567e-05 6.8457814e-06        0.006 0.0072508151  -0.24030561  0.065911991   0.29320679 
   31110     3883 6.3339814e-05 6.9579909e-06        0.006 0.0072503729  -0.24030561  0.065911991   0.29320679 
   31120     3883 6.4408514e-05 7.0741474e-06        0.006  0.007249881  -0.24030561  0.065911991   0.29320679 
   31130     3883 6.5498478e-05 7.1829388e-06        0.006 0.0072493887  -0.24030561  0.065911991   0.29320679 
   31140     3883 6.6596095e-05 7.2970508e-06        0.006 0.0072488959  -0.24030561  0.065911991   0.29320679 
   31150     3883 6.7703082e-05 7.4145835e-06        0.006 0.0072484026  -0.24030561  0.065911991   0.29320679 
   31151     3883 6.7814694e-05 7.4271001e-06        0.006 0.0072483533  -0.24030561  0.065911991   0.29320679 
Loop time of 0.0291542 on 4 procs for 50 steps with 3883 atoms
Max time of 0.0291542 on 4 procs for 50 steps with 3883 atoms
run 50 pre no post no
Step Atoms KinEng rke Volume centerOf dragtota dragtota dragtota 
   31151     3883 6.7814694e-05 7.4271001e-06        0.006 0.0072483533  -0.27645574  0.089901325    0.3872354 
   31160     3883 6.8964841e-05 7.5399894e-06        0.006 0.0072479125  -0.27645574  0.089901325    0.3872354 
   31170     3883 7.0264059e-05 7.6669037e-06        0.006 0.0072474314  -0.27645574  0.089901325    0.3872354 
   31180     3883 7.156635e-05 7.7855602e-06        0.006 0.0072469594  -0.27645574  0.089901325    0.3872354 
   31190     3883 7.2887617e-05 7.8999056e-06        0.006 0.0072464964  -0.27645574  0.089901325    0.3872354 
CFD Coupling established at step31200
   31200     3883 7.4244227e-05 8.0203204e-06        0.006 0.0072460421  -0.27645574  0.089901325    0.3872354 
   31201     3883 7.4381509e-05 8.0330862e-06        0.006 0.0072459972  -0.27645574  0.089901325    0.3872354 
Loop time of 0.0270443 on 4 procs for 50 steps with 3883 atoms
Max time of 0.0270445 on 4 procs for 50 steps with 3883 atoms
run 50 pre no post no
Step Atoms KinEng rke Volume centerOf dragtota dragtota dragtota 
   31201     3883 7.4381509e-05 8.0330862e-06        0.006 0.0072459972  -0.28974971  0.082457481   0.30821115 
   31210     3883 7.5561396e-05 8.1452557e-06        0.006 0.0072455933  -0.28974971  0.082457481   0.30821115 
   31220     3883 7.6876315e-05 8.2594215e-06        0.006 0.0072451442  -0.28974971  0.082457481   0.30821115 
   31230     3883 7.8200265e-05 8.3766815e-06        0.006 0.0072446947  -0.28974971  0.082457481   0.30821115 
   31240     3883 7.9535599e-05 8.4973894e-06        0.006 0.0072442447  -0.28974971  0.082457481   0.30821115 
   31250     3883 8.0880871e-05 8.6134309e-06        0.006  0.007243794  -0.28974971  0.082457481   0.30821115 
   31251     3883 8.1014961e-05 8.6251866e-06        0.006 0.0072437489  -0.28974971  0.082457481   0.30821115 
Loop time of 0.0238471 on 4 procs for 50 steps with 3883 atoms
Max time of 0.0238473 on 4 procs for 50 steps with 3883 atoms
run 50 pre no post no
Step Atoms KinEng rke Volume centerOf dragtota dragtota dragtota 
   31251     3883 8.1014961e-05 8.6251866e-06        0.006 0.0072437489  -0.23649293   0.11586063    0.2974625 
   31260     3883 8.2209291e-05 8.733154e-06        0.006  0.007243342  -0.23649293   0.11586063    0.2974625 
   31270     3883 8.3555616e-05 8.8504483e-06        0.006 0.0072428879  -0.23649293   0.11586063    0.2974625 
   31280     3883 8.4920104e-05 8.9821704e-06        0.006 0.0072424313  -0.23649293   0.11586063    0.2974625 
   31290     3883 8.6289351e-05 9.119079e-06        0.006 0.0072419721  -0.23649293   0.11586063    0.2974625 
CFD Coupling established at step31300
   31300     3883 8.7644523e-05 9.2601768e-06        0.006 0.0072415101  -0.23649293   0.11586063    0.2974625 
   31301     3883 8.7781826e-05 9.2745299e-06        0.006 0.0072414637  -0.23649293   0.11586063    0.2974625 
Loop time of 0.0267993 on 4 procs for 50 steps with 3883 atoms
Max time of 0.0267994 on 4 procs for 50 steps with 3883 atoms
run 50 pre no post no
Step Atoms KinEng rke Volume centerOf dragtota dragtota dragtota 
   31301     3883 8.7781826e-05 9.2745299e-06        0.006 0.0072414637  -0.24980532   0.11057917   0.27321559 
   31310     3883 8.9084478e-05 9.4063016e-06        0.006  0.007241044  -0.24980532   0.11057917   0.27321559 
   31320     3883 9.0578367e-05 9.5548109e-06        0.006 0.0072405719  -0.24980532   0.11057917   0.27321559 
   31330     3883 9.2113901e-05 9.7034868e-06        0.006 0.0072400935  -0.24980532   0.11057917   0.27321559 
   31340     3883 9.3658692e-05 9.8472849e-06        0.006 0.0072396085  -0.24980532   0.11057917   0.27321559 
   31350     3883 9.5224891e-05 9.9964079e-06        0.006 0.0072391167  -0.24980532   0.11057917   0.27321559 
   31351     3883 9.5382429e-05 1.0010179e-05        0.006 0.0072390671  -0.24980532   0.11057917   0.27321559 
Loop time of 0.0249459 on 4 procs for 50 steps with 3883 atoms
Max time of 0.024946 on 4 procs for 50 steps with 3883 atoms
run 50 pre no post no
Step Atoms KinEng rke Volume centerOf dragtota dragtota dragtota 
   31351     3883 9.5382429e-05 1.0010179e-05        0.006 0.0072390671  -0.24504776   0.14620864   0.33259746 
   31360     3883 9.6776274e-05 1.0138906e-05        0.006 0.0072386198  -0.24504776   0.14620864   0.33259746 
   31370     3883 9.8345952e-05 1.0288212e-05        0.006 0.0072381213  -0.24504776   0.14620864   0.33259746 
   31380     3883 9.9937566e-05 1.0425868e-05        0.006 0.0072376211  -0.24504776   0.14620864   0.33259746 
   31390     3883 0.00010155799 1.0568468e-05        0.006 0.0072371187  -0.24504776   0.14620864   0.33259746 
CFD Coupling established at step31400
   31400     3883 0.00010319284 1.0715072e-05        0.006 0.0072366142  -0.24504776   0.14620864   0.33259746 
   31401     3883 0.00010335713  1.07301e-05        0.006 0.0072365637  -0.24504776   0.14620864   0.33259746 
Loop time of 0.0248719 on 4 procs for 50 steps with 3883 atoms
Max time of 0.024872 on 4 procs for 50 steps with 3883 atoms
run 50 pre no post no
Step Atoms KinEng rke Volume centerOf dragtota dragtota dragtota 
   31401     3883 0.00010335713  1.07301e-05        0.006 0.0072365637   -0.2988698    0.1105288   0.30624265 
   31410     3883 0.00010487535 1.0851751e-05        0.006 0.0072361063   -0.2988698    0.1105288   0.30624265 
   31420     3883 0.00010643834 1.1021336e-05        0.006 0.0072355933   -0.2988698    0.1105288   0.30624265 
   31430     3883 0.00010810119 1.1200293e-05        0.006 0.0072350756   -0.2988698    0.1105288   0.30624265 
   31440     3883 0.00010988458 1.1343057e-05        0.006 0.0072345533   -0.2988698    0.1105288   0.30624265 
   31450     3883 0.00011171842 1.1457942e-05        0.006  0.007234026   -0.2988698    0.1105288   0.30624265 
   31451     3883 0.00011190241 1.1469258e-05        0.006  0.007233973   -0.2988698    0.1105288   0.30624265 
Loop time of 0.0264416 on 4 procs for 50 steps with 3883 atoms
Max time of 0.0264416 on 4 procs for 50 steps with 3883 atoms
run 50 pre no post no
Step Atoms KinEng rke Volume centerOf dragtota dragtota dragtota 
   31451     3883 0.00011190241 1.1469258e-05        0.006  0.007233973  -0.34979221   0.13979948   0.34715262 
   31460     3883 0.00011363345 1.157763e-05        0.006  0.007233495  -0.34979221   0.13979948   0.34715262 
   31470     3883 0.00011556622 1.1695503e-05        0.006 0.0072329624  -0.34979221   0.13979948   0.34715262 
   31480     3883 0.00011751671 1.1827395e-05        0.006 0.0072324281  -0.34979221   0.13979948   0.34715262 
   31490     3883 0.00011949691 1.1977312e-05        0.006  0.007231892  -0.34979221   0.13979948   0.34715262 
CFD Coupling established at step31500
   31500     3883 0.00012149036 1.2132517e-05        0.006 0.0072313544  -0.34979221   0.13979948   0.34715262 
   31501     3883 0.00012168974 1.2148275e-05        0.006 0.0072313006  -0.34979221   0.13979948   0.34715262 
Loop time of 0.0246593 on 4 procs for 50 steps with 3883 atoms
Max time of 0.0246594 on 4 procs for 50 steps with 3883 atoms
run 50 pre no post no
Step Atoms KinEng rke Volume centerOf dragtota dragtota dragtota 
   31501     3883 0.00012168974 1.2148275e-05        0.006 0.0072313006  -0.28365556   0.11659836   0.27616668 
   31510     3883 0.00012326303 1.2288318e-05        0.006 0.0072308128  -0.28365556   0.11659836   0.27616668 
   31520     3883 0.00012501275 1.2450938e-05        0.006 0.0072302627  -0.28365556   0.11659836   0.27616668 
   31530     3883 0.00012679357 1.2618889e-05        0.006 0.0072297042  -0.28365556   0.11659836   0.27616668 
   31540     3883 0.00012860423 1.277808e-05        0.006 0.0072291375  -0.28365556   0.11659836   0.27616668 
   31550     3883 0.00013044316 1.2942147e-05        0.006 0.0072285629  -0.28365556   0.11659836   0.27616668 
   31551     3883 0.00013062838 1.295873e-05        0.006  0.007228505  -0.28365556   0.11659836   0.27616668 
Loop time of 0.0242484 on 4 procs for 50 steps with 3883 atoms
Max time of 0.0242488 on 4 procs for 50 steps with 3883 atoms
run 50 pre no post no
Step Atoms KinEng rke Volume centerOf dragtota dragtota dragtota 
   31551     3883 0.00013062838 1.295873e-05        0.006  0.007228505  -0.29230722  0.087792716   0.27478193 
   31560     3883 0.0001324338 1.3109595e-05        0.006 0.0072279808  -0.29230722  0.087792716   0.27478193 
   31570     3883 0.00013443392 1.3274054e-05        0.006 0.0072273917  -0.29230722  0.087792716   0.27478193 
   31580     3883 0.00013644371 1.345351e-05        0.006  0.007226796  -0.29230722  0.087792716   0.27478193 
   31590     3883 0.00013845726 1.3632233e-05        0.006 0.0072261941  -0.29230722  0.087792716   0.27478193 
CFD Coupling established at step31600
   31600     3883 0.00014045886 1.3830055e-05        0.006 0.0072255865  -0.29230722  0.087792716   0.27478193 
   31601     3883 0.00014066014 1.3851281e-05        0.006 0.0072255255  -0.29230722  0.087792716   0.27478193 
Loop time of 0.0281405 on 4 procs for 50 steps with 3883 atoms
Max time of 0.0281414 on 4 procs for 50 steps with 3883 atoms
run 50 pre no post no
Step Atoms KinEng rke Volume centerOf dragtota dragtota dragtota 
   31601     3883 0.00014066014 1.3851281e-05        0.006 0.0072255255  -0.28293364    0.1029843   0.29336203 
   31610     3883 0.00014257824 1.4023957e-05        0.006 0.0072249742  -0.28293364    0.1029843   0.29336203 
   31620     3883 0.00014472006 1.4220274e-05        0.006 0.0072243586  -0.28293364    0.1029843   0.29336203 
   31630     3883 0.00014686261 1.4395695e-05        0.006 0.0072237399  -0.28293364    0.1029843   0.29336203 
   31640     3883 0.00014900105 1.4549052e-05        0.006 0.0072231184  -0.28293364    0.1029843   0.29336203 
   31650     3883 0.0001511157 1.4726165e-05        0.006 0.0072224944  -0.28293364    0.1029843   0.29336203 
   31651     3883 0.00015132737 1.4743115e-05        0.006 0.0072224319  -0.28293364    0.1029843   0.29336203 
Loop time of 0.0272049 on 4 procs for 50 steps with 3883 atoms
Max time of 0.0272051 on 4 procs for 50 steps with 3883 atoms
run 50 pre no post no
Step Atoms KinEng rke Volume centerOf dragtota dragtota dragtota 
   31651     3883 0.00015132737 1.4743115e-05        0.006 0.0072224319  -0.20717762   0.15372471    0.1948274 
   31660     3883 0.00015294183 1.4896616e-05        0.006 0.0072218645  -0.20717762   0.15372471    0.1948274 
   31670     3883 0.00015472768 1.5082669e-05        0.006 0.0072212224  -0.20717762   0.15372471    0.1948274 
   31680     3883 0.00015656206 1.5280436e-05        0.006 0.0072205685  -0.20717762   0.15372471    0.1948274 
   31690     3883 0.00015843492 1.5459199e-05        0.006 0.0072199033  -0.20717762   0.15372471    0.1948274 
CFD Coupling established at step31700
   31700     3883 0.00016031213 1.5636849e-05        0.006  0.007219227  -0.20717762   0.15372471    0.1948274 
   31701     3883 0.00016049977 1.5655753e-05        0.006 0.0072191588  -0.20717762   0.15372471    0.1948274 
Loop time of 0.0266592 on 4 procs for 50 steps with 3883 atoms
Max time of 0.0266593 on 4 procs for 50 steps with 3883 atoms
run 50 pre no post no
Step Atoms KinEng rke Volume centerOf dragtota dragtota dragtota 
   31701     3883 0.00016049977 1.5655753e-05        0.006 0.0072191588  -0.22580241  0.083290724   0.31531196 
   31710     3883 0.00016219364 1.5824673e-05        0.006 0.0072185442  -0.22580241  0.083290724   0.31531196 
   31720     3883 0.00016410111 1.6025171e-05        0.006 0.0072178629  -0.22580241  0.083290724   0.31531196 
   31730     3883 0.00016599462 1.6237415e-05        0.006 0.0072171833  -0.22580241  0.083290724   0.31531196 
   31740     3883 0.00016790493 1.6460729e-05        0.006 0.0072165054  -0.22580241  0.083290724   0.31531196 
   31750     3883 0.00016985292 1.6675604e-05        0.006 0.0072158297  -0.22580241  0.083290724   0.31531196 
   31751     3883 0.00017004971 1.6695651e-05        0.006 0.0072157623  -0.22580241  0.083290724   0.31531196 
Loop time of 0.0244561 on 4 procs for 50 steps with 3883 atoms
Max time of 0.0244572 on 4 procs for 50 steps with 3883 atoms
run 50 pre no post no
Step Atoms KinEng rke Volume centerOf dragtota dragtota dragtota 
   31751     3883 0.00017004971 1.6695651e-05        0.006 0.0072157623  -0.22649666   0.12486131   0.26525107 
   31760     3883 0.00017189294 1.6879182e-05        0.006 0.0072151544  -0.22649666   0.12486131   0.26525107 
   31770     3883 0.00017392491 1.7087379e-05        0.006 0.0072144764  -0.22649666   0.12486131   0.26525107 
   31780     3883 0.00017596263 1.7289444e-05        0.006 0.0072137962  -0.22649666   0.12486131   0.26525107 
   31790     3883 0.00017798392 1.7520483e-05        0.006 0.0072131144  -0.22649666   0.12486131   0.26525107 
CFD Coupling established at step31800
   31800     3883 0.00018004332 1.7762425e-05        0.006 0.0072124318  -0.22649666   0.12486131   0.26525107 
   31801     3883 0.00018025418 1.7787919e-05        0.006 0.0072123635  -0.22649666   0.12486131   0.26525107 
Loop time of 0.024233 on 4 procs for 50 steps with 3883 atoms
Max time of 0.0242331 on 4 procs for 50 steps with 3883 atoms
run 50 pre no post no
Step Atoms KinEng rke Volume centerOf dragtota dragtota dragtota 
   31801     3883 0.00018025418 1.7787919e-05        0.006 0.0072123635  -0.20033697  0.092952898   0.32891101 
   31810     3883 0.00018192083 1.800315e-05        0.006 0.0072117511  -0.20033697  0.092952898   0.32891101 
   31820     3883 0.00018382419 1.8242007e-05        0.006 0.0072110763  -0.20033697  0.092952898   0.32891101 
   31830     3883 0.00018577942 1.8479611e-05        0.006 0.0072104076  -0.20033697  0.092952898   0.32891101 
   31840     3883 0.0001877541 1.8679078e-05        0.006 0.0072097446  -0.20033697  0.092952898   0.32891101 
   31850     3883 0.0001897615 1.8908377e-05        0.006 0.0072090871  -0.20033697  0.092952898   0.32891101 
   31851     3883 0.00018996213 1.893344e-05        0.006 0.0072090216  -0.20033697  0.092952898   0.32891101 
Loop time of 0.0257994 on 4 procs for 50 steps with 3883 atoms
Max time of 0.0257996 on 4 procs for 50 steps with 3883 atoms
run 50 pre no post no
Step Atoms KinEng rke Volume centerOf dragtota dragtota dragtota 
   31851     3883 0.00018996213 1.893344e-05        0.006 0.0072090216  -0.22171366  0.075642352    0.2884012 
   31860     3883 0.00019186333 1.9157426e-05        0.006  0.007208433  -0.22171366  0.075642352    0.2884012 
   31870     3883 0.00019399139 1.9401303e-05        0.006 0.0072077794  -0.22171366  0.075642352    0.2884012 
   31880     3883 0.0001962275 1.9639249e-05        0.006 0.0072071263  -0.22171366  0.075642352    0.2884012 
   31890     3883 0.00019852652 1.9849176e-05        0.006 0.0072064737  -0.22171366  0.075642352    0.2884012 
CFD Coupling established at step31900
   31900     3883 0.00020085471 2.0029046e-05        0.006 0.0072058216  -0.22171366  0.075642352    0.2884012 
   31901     3883 0.00020109026 2.0049781e-05        0.006 0.0072057564  -0.22171366  0.075642352    0.2884012 
Loop time of 0.0237267 on 4 procs for 50 steps with 3883 atoms
Max time of 0.0237272 on 4 procs for 50 steps with 3883 atoms
run 50 pre no post no
Step Atoms KinEng rke Volume centerOf dragtota dragtota dragtota 
   31901     3883 0.00020109026 2.0049781e-05        0.006 0.0072057564  -0.16376244  0.052442414   0.37050474 
   31910     3883 0.0002031554 2.0227448e-05        0.006 0.0072051726  -0.16376244  0.052442414   0.37050474 
   31920     3883 0.00020547423 2.0430378e-05        0.006 0.0072045315  -0.16376244  0.052442414   0.37050474 
   31930     3883 0.00020785275 2.0632569e-05        0.006 0.0072038976  -0.16376244  0.052442414   0.37050474 
   31940     3883 0.00021028666 2.0842391e-05        0.006 0.0072032699  -0.16376244  0.052442414   0.37050474 
   31950     3883 0.0002127763 2.106698e-05        0.006 0.0072026477  -0.16376244  0.052442414   0.37050474 
   31951     3883 0.00021302642 2.1089472e-05        0.006 0.0072025857  -0.16376244  0.052442414   0.37050474 
Loop time of 0.0257653 on 4 procs for 50 steps with 3883 atoms
Max time of 0.0257664 on 4 procs for 50 steps with 3883 atoms
run 50 pre no post no
Step Atoms KinEng rke Volume centerOf dragtota dragtota dragtota 
   31951     3883 0.00021302642 2.1089472e-05        0.006 0.0072025857  -0.24420432   0.10397737   0.35049331 
   31960     3883 0.00021541997 2.1289089e-05        0.006  0.007202029  -0.24420432   0.10397737   0.35049331 
   31970     3883 0.00021813738 2.1503535e-05        0.006 0.0072014117  -0.24420432   0.10397737   0.35049331 
   31980     3883 0.00022090744 2.1715488e-05        0.006 0.0072007949  -0.24420432   0.10397737   0.35049331 
   31990     3883 0.00022371888 2.1911136e-05        0.006 0.0072001784  -0.24420432   0.10397737   0.35049331 
CFD Coupling established at step32000
   32000     3883 0.00022654268 2.2094102e-05        0.006 0.0071995615  -0.24420432   0.10397737   0.35049331 
   32001     3883 0.00022682472 2.2110973e-05        0.006 0.0071994998  -0.24420432   0.10397737   0.35049331 
Loop time of 0.0245324 on 4 procs for 50 steps with 3883 atoms
Max time of 0.0245324 on 4 procs for 50 steps with 3883 atoms
run 50 pre no post no
Step Atoms KinEng rke Volume centerOf dragtota dragtota dragtota 
   32001     3883 0.00022682472 2.2110973e-05        0.006 0.0071994998  -0.26351602  0.079789371   0.44640815 
   32010     3883 0.0002296673 2.2278654e-05        0.006 0.0071989476  -0.26351602  0.079789371   0.44640815 
   32020     3883 0.00023289894 2.2459156e-05        0.006 0.0071983424  -0.26351602  0.079789371   0.44640815 
   32030     3883 0.00023617522 2.2663075e-05        0.006 0.0071977455  -0.26351602  0.079789371   0.44640815 
   32040     3883 0.00023954055 2.287723e-05        0.006 0.0071971564  -0.26351602  0.079789371   0.44640815 
   32050     3883 0.00024297436 2.3089594e-05        0.006 0.0071965745  -0.26351602  0.079789371   0.44640815 
   32051     3883 0.0002433207 2.3110453e-05        0.006 0.0071965166  -0.26351602  0.079789371   0.44640815 
Loop time of 0.0229546 on 4 procs for 50 steps with 3883 atoms
Max time of 0.0229549 on 4 procs for 50 steps with 3883 atoms
run 50 pre no post no
Step Atoms KinEng rke Volume centerOf dragtota dragtota dragtota 
   32051     3883 0.0002433207 2.3110453e-05        0.006 0.0071965166  -0.22857832   0.11268833   0.31328581 
   32060     3883 0.00024605611 2.3298928e-05        0.006 0.0071959942  -0.22857832   0.11268833   0.31328581 
   32070     3883 0.00024904589 2.3491678e-05        0.006 0.0071954066  -0.22857832   0.11268833   0.31328581 
   32080     3883 0.00025205888 2.367764e-05        0.006 0.0071948114  -0.22857832   0.11268833   0.31328581 
   32090     3883 0.00025510484 2.3872074e-05        0.006 0.0071942086  -0.22857832   0.11268833   0.31328581 
CFD Coupling established at step32100
   32100     3883 0.00025814278 2.4035977e-05        0.006  0.007193598  -0.22857832   0.11268833   0.31328581 
   32101     3883 0.00025844856 2.4053808e-05        0.006 0.0071935365  -0.22857832   0.11268833   0.31328581 
Loop time of 0.0251553 on 4 procs for 50 steps with 3883 atoms
Max time of 0.0251554 on 4 procs for 50 steps with 3883 atoms
run 50 pre no post no
Step Atoms KinEng rke Volume centerOf dragtota dragtota dragtota 
   32101     3883 0.00025844856 2.4053808e-05        0.006 0.0071935365  -0.27413317   0.11661729     0.319579 
   32110     3883 0.00026157484 2.4211911e-05        0.006 0.0071929797  -0.27413317   0.11661729     0.319579 
   32120     3883 0.00026512714 2.4390395e-05        0.006 0.0071923536  -0.27413317   0.11661729     0.319579 
   32130     3883 0.00026868223 2.4583784e-05        0.006 0.0071917196  -0.27413317   0.11661729     0.319579 
   32140     3883 0.00027227213 2.4782455e-05        0.006 0.0071910776  -0.27413317   0.11661729     0.319579 
   32150     3883 0.00027584507 2.4971019e-05        0.006 0.0071904273  -0.27413317   0.11661729     0.319579 
   32151     3883 0.00027620502 2.4992477e-05        0.006 0.0071903618  -0.27413317   0.11661729     0.319579 
Loop time of 0.0249965 on 4 procs for 50 steps with 3883 atoms
Max time of 0.0249967 on 4 procs for 50 steps with 3883 atoms
run 50 pre no post no
Step Atoms KinEng rke Volume centerOf dragtota dragtota dragtota 
   32151     3883 0.00027620502 2.4992477e-05        0.006 0.0071903618  -0.26284904   0.12131321   0.36120794 
   32160     3883 0.00027951934 2.5171606e-05        0.006 0.0071897701  -0.26284904   0.12131321   0.36120794 
   32170     3883 0.00028325473 2.5375106e-05        0.006 0.0071891084  -0.26284904   0.12131321   0.36120794 
   32180     3883 0.00028703277 2.5607296e-05        0.006 0.0071884424  -0.26284904   0.12131321   0.36120794 
   32190     3883 0.00029083984 2.5850896e-05        0.006 0.0071877724  -0.26284904   0.12131321   0.36120794 
CFD Coupling established at step32200
   32200     3883 0.0002946805 2.6097541e-05        0.006 0.0071870984  -0.26284904   0.12131321   0.36120794 
   32201     3883 0.00029506255 2.6123635e-05        0.006 0.0071870308  -0.26284904   0.12131321   0.36120794 
Loop time of 0.0233826 on 4 procs for 50 steps with 3883 atoms
Max time of 0.0233827 on 4 procs for 50 steps with 3883 atoms
run 50 pre no post no
Step Atoms KinEng rke Volume centerOf dragtota dragtota dragtota 
   32201     3883 0.00029506255 2.6123635e-05        0.006 0.0071870308  -0.18034547   0.10081346   0.35204229 
   32210     3883 0.00029793521 2.6368152e-05        0.006 0.0071864204  -0.18034547   0.10081346   0.35204229 
   32220     3883 0.00030106868 2.6653468e-05        0.006 0.0071857379  -0.18034547   0.10081346   0.35204229 
   32230     3883 0.00030427922 2.6914415e-05        0.006 0.0071850511  -0.18034547   0.10081346   0.35204229 
   32240     3883 0.00030751891 2.7203347e-05        0.006   0.00718436  -0.18034547   0.10081346   0.35204229 
   32250     3883 0.00031081617 2.7511362e-05        0.006 0.0071836648  -0.18034547   0.10081346   0.35204229 
   32251     3883 0.00031114911 2.7542405e-05        0.006 0.0071835951  -0.18034547   0.10081346   0.35204229 
Loop time of 0.0256708 on 4 procs for 50 steps with 3883 atoms
Max time of 0.0256711 on 4 procs for 50 steps with 3883 atoms
run 50 pre no post no
Step Atoms KinEng rke Volume centerOf dragtota dragtota dragtota 
   32251     3883 0.00031114911 2.7542405e-05        0.006 0.0071835951  -0.18540784   0.11546239   0.29403946 
   32260     3883 0.00031421822 2.7807506e-05        0.006 0.0071829634  -0.18540784   0.11546239   0.29403946 
   32270     3883 0.0003176858 2.8050121e-05        0.006 0.0071822519  -0.18540784   0.11546239   0.29403946 
   32280     3883 0.00032119134 2.8246347e-05        0.006 0.0071815302  -0.18540784   0.11546239   0.29403946 
   32290     3883 0.00032475839 2.8427194e-05        0.006 0.0071807982  -0.18540784   0.11546239   0.29403946 
CFD Coupling established at step32300
   32300     3883 0.00032836564 2.8634534e-05        0.006 0.0071800556  -0.18540784   0.11546239   0.29403946 
   32301     3883 0.00032872609 2.8654283e-05        0.006 0.0071799807  -0.18540784   0.11546239   0.29403946 
Loop time of 0.0228321 on 4 procs for 50 steps with 3883 atoms
Max time of 0.0228323 on 4 procs for 50 steps with 3883 atoms
run 50 pre no post no
Step Atoms KinEng rke Volume centerOf dragtota dragtota dragtota 
   32301     3883 0.00032872609 2.8654283e-05        0.006 0.0071799807  -0.20270645  0.087300221   0.30629059 
   32310     3883 0.0003321492 2.8815954e-05        0.006 0.0071793026  -0.20270645  0.087300221   0.30629059 
   32320     3883 0.00033592613 2.9012878e-05        0.006 0.0071785402  -0.20270645  0.087300221   0.30629059 
   32330     3883 0.00033970833 2.9238854e-05        0.006 0.0071777688  -0.20270645  0.087300221   0.30629059 
   32340     3883 0.00034347512 2.9446831e-05        0.006 0.0071769892  -0.20270645  0.087300221   0.30629059 
   32350     3883 0.00034719288 2.9685683e-05        0.006 0.0071762021  -0.20270645  0.087300221   0.30629059 
   32351     3883 0.00034756465 2.9712206e-05        0.006 0.0071761231  -0.20270645  0.087300221   0.30629059 
Loop time of 0.0248779 on 4 procs for 50 steps with 3883 atoms
Max time of 0.0248783 on 4 procs for 50 steps with 3883 atoms
run 50 pre no post no
Step Atoms KinEng rke Volume centerOf dragtota dragtota dragtota 
   32351     3883 0.00034756465 2.9712206e-05        0.006 0.0071761231  -0.23915032   0.11105991   0.35463944 
   32360     3883 0.0003512416 2.9924883e-05        0.006 0.0071754105  -0.23915032   0.11105991   0.35463944 
   32370     3883 0.0003554098 3.0170662e-05        0.006 0.0071746181  -0.23915032   0.11105991   0.35463944 
   32380     3883 0.00035960876 3.0385499e-05        0.006 0.0071738253  -0.23915032   0.11105991   0.35463944 
   32390     3883 0.0003638137 3.062583e-05        0.006 0.0071730325  -0.23915032   0.11105991   0.35463944 
CFD Coupling established at step32400
   32400     3883 0.0003680558 3.0887035e-05        0.006 0.0071722394  -0.23915032   0.11105991   0.35463944 
   32401     3883 0.0003684726  3.09103e-05        0.006 0.0071721601  -0.23915032   0.11105991   0.35463944 
Loop time of 0.0248713 on 4 procs for 50 steps with 3883 atoms
Max time of 0.0248717 on 4 procs for 50 steps with 3883 atoms
run 50 pre no post no
Step Atoms KinEng rke Volume centerOf dragtota dragtota dragtota 
   32401     3883 0.0003684726  3.09103e-05        0.006 0.0071721601  -0.15646503   0.13191611   0.31107807 
   32410     3883 0.00037180199 3.1161238e-05        0.006 0.0071714443  -0.15646503   0.13191611   0.31107807 
   32420     3883 0.00037543604 3.1343894e-05        0.006 0.0071706435  -0.15646503   0.13191611   0.31107807 
   32430     3883 0.00037910046 3.1598128e-05        0.006 0.0071698369  -0.15646503   0.13191611   0.31107807 
   32440     3883 0.0003827145 3.1884561e-05        0.006 0.0071690244  -0.15646503   0.13191611   0.31107807 
   32450     3883 0.00038634183 3.2208372e-05        0.006 0.0071682064  -0.15646503   0.13191611   0.31107807 
   32451     3883 0.00038670772 3.2236104e-05        0.006 0.0071681244  -0.15646503   0.13191611   0.31107807 
Loop time of 0.0192492 on 4 procs for 50 steps with 3883 atoms
Max time of 0.0192495 on 4 procs for 50 steps with 3883 atoms
run 50 pre no post no
Step Atoms KinEng rke Volume centerOf dragtota dragtota dragtota 
   32451     3883 0.00038670772 3.2236104e-05        0.006 0.0071681244    -0.174182   0.12124327   0.32087514 
   32460     3883 0.00039041662 3.253896e-05        0.006 0.0071673844    -0.174182   0.12124327   0.32087514 
   32470     3883 0.00039464348 3.2917455e-05        0.006   0.00716656    -0.174182   0.12124327   0.32087514 
   32480     3883 0.00039898723 3.3266254e-05        0.006 0.0071657338    -0.174182   0.12124327   0.32087514 
   32490     3883 0.00040331701 3.3600655e-05        0.006 0.0071649059    -0.174182   0.12124327   0.32087514 
CFD Coupling established at step32500
   32500     3883 0.00040774895 3.3929265e-05        0.006 0.0071640765    -0.174182   0.12124327   0.32087514 
   32501     3883 0.00040819835 3.3961507e-05        0.006 0.0071639935    -0.174182   0.12124327   0.32087514 
Loop time of 0.024572 on 4 procs for 50 steps with 3883 atoms
Max time of 0.0245721 on 4 procs for 50 steps with 3883 atoms
run 50 pre no post no
Step Atoms KinEng rke Volume centerOf dragtota dragtota dragtota 
   32501     3883 0.00040819835 3.3961507e-05        0.006 0.0071639935  -0.13285572  0.099677811    0.2907591 
   32510     3883 0.0004120166 3.4234381e-05        0.006 0.0071632442  -0.13285572  0.099677811    0.2907591 
   32520     3883 0.00041629686 3.4499949e-05        0.006 0.0071624064  -0.13285572  0.099677811    0.2907591 
   32530     3883 0.00042062619 3.4751547e-05        0.006 0.0071615628  -0.13285572  0.099677811    0.2907591 
   32540     3883 0.00042496696 3.5001539e-05        0.006 0.0071607129  -0.13285572  0.099677811    0.2907591 
   32550     3883 0.00042925099 3.5246151e-05        0.006 0.0071598565  -0.13285572  0.099677811    0.2907591 
   32551     3883 0.00042967639 3.5272783e-05        0.006 0.0071597704  -0.13285572  0.099677811    0.2907591 
Loop time of 0.0228104 on 4 procs for 50 steps with 3883 atoms
Max time of 0.0228112 on 4 procs for 50 steps with 3883 atoms
run 50 pre no post no
Step Atoms KinEng rke Volume centerOf dragtota dragtota dragtota 
   32551     3883 0.00042967639 3.5272783e-05        0.006 0.0071597704   -0.1732257   0.12584766   0.28871509 
   32560     3883 0.00043367755 3.5542046e-05        0.006  0.007158993   -0.1732257   0.12584766   0.28871509 
   32570     3883 0.00043824762 3.5882934e-05        0.006  0.007158122   -0.1732257   0.12584766   0.28871509 
   32580     3883 0.00044283652 3.617104e-05        0.006 0.0071572434   -0.1732257   0.12584766   0.28871509 
   32590     3883 0.00044744267 3.6432096e-05        0.006 0.0071563574   -0.1732257   0.12584766   0.28871509 
CFD Coupling established at step32600
   32600     3883 0.00045203154 3.6643712e-05        0.006 0.0071554644   -0.1732257   0.12584766   0.28871509 
   32601     3883 0.00045249399 3.667158e-05        0.006 0.0071553747   -0.1732257   0.12584766   0.28871509 
Loop time of 0.027228 on 4 procs for 50 steps with 3883 atoms
Max time of 0.0272285 on 4 procs for 50 steps with 3883 atoms
run 50 pre no post no
Step Atoms KinEng rke Volume centerOf dragtota dragtota dragtota 
   32601     3883 0.00045249399 3.667158e-05        0.006 0.0071553747  -0.12209645   0.12873202    0.2936418 
   32610     3883  0.000456901 3.6938947e-05        0.006  0.007154565  -0.12209645   0.12873202    0.2936418 
   32620     3883 0.00046178807 3.7242016e-05        0.006   0.00715366  -0.12209645   0.12873202    0.2936418 
   32630     3883 0.00046672186 3.7534976e-05        0.006 0.0071527498  -0.12209645   0.12873202    0.2936418 
   32640     3883 0.00047161434 3.7881952e-05        0.006 0.0071518347  -0.12209645   0.12873202    0.2936418 
   32650     3883 0.00047656984 3.8245063e-05        0.006 0.0071509153  -0.12209645   0.12873202    0.2936418 
   32651     3883 0.00047706762 3.8282984e-05        0.006 0.0071508232  -0.12209645   0.12873202    0.2936418 
Loop time of 0.0247641 on 4 procs for 50 steps with 3883 atoms
Max time of 0.0247643 on 4 procs for 50 steps with 3883 atoms
run 50 pre no post no
Step Atoms KinEng rke Volume centerOf dragtota dragtota dragtota 
   32651     3883 0.00047706762 3.8282984e-05        0.006 0.0071508232  -0.15480009   0.12971202   0.29156051 
   32660     3883 0.00048154209 3.863521e-05        0.006 0.0071499918  -0.15480009   0.12971202   0.29156051 
   32670     3883 0.00048656235 3.9025708e-05        0.006 0.0071490641  -0.15480009   0.12971202   0.29156051 
   32680     3883 0.00049162626 3.9426957e-05        0.006 0.0071481326  -0.15480009   0.12971202   0.29156051 
   32690     3883 0.00049675777 3.978842e-05        0.006 0.0071471976  -0.15480009   0.12971202   0.29156051 
CFD Coupling established at step32700
   32700     3883 0.00050198519 4.015007e-05        0.006 0.0071462591  -0.15480009   0.12971202   0.29156051 
   32701     3883 0.00050251579 4.0185263e-05        0.006  0.007146165  -0.15480009   0.12971202   0.29156051 
Loop time of 0.0228583 on 4 procs for 50 steps with 3883 atoms
Max time of 0.0228588 on 4 procs for 50 steps with 3883 atoms
run 50 pre no post no
Step Atoms KinEng rke Volume centerOf dragtota dragtota dragtota 
   32701     3883 0.00050251579 4.0185263e-05        0.006  0.007146165  -0.17711371    0.1191886   0.36403222 
   32710     3883 0.00050671965 4.0468627e-05        0.006 0.0071453197  -0.17711371    0.1191886   0.36403222 
   32720     3883 0.00051137782 4.0735328e-05        0.006 0.0071443844  -0.17711371    0.1191886   0.36403222 
   32730     3883 0.00051604768 4.1027345e-05        0.006 0.0071434533  -0.17711371    0.1191886   0.36403222 
   32740     3883 0.00052075697 4.119954e-05        0.006 0.0071425263  -0.17711371    0.1191886   0.36403222 
   32750     3883 0.00052544164 4.1391368e-05        0.006 0.0071416033  -0.17711371    0.1191886   0.36403222 
   32751     3883 0.00052591244 4.1413468e-05        0.006 0.0071415112  -0.17711371    0.1191886   0.36403222 
Loop time of 0.0246536 on 4 procs for 50 steps with 3883 atoms
Max time of 0.0246537 on 4 procs for 50 steps with 3883 atoms
run 50 pre no post no
Step Atoms KinEng rke Volume centerOf dragtota dragtota dragtota 
   32751     3883 0.00052591244 4.1413468e-05        0.006 0.0071415112  -0.11520425  0.041251748   0.29524093 
   32760     3883 0.00053026358 4.1597012e-05        0.006  0.007140681  -0.11520425  0.041251748   0.29524093 
   32770     3883 0.00053512352 4.1746738e-05        0.006 0.0071397541  -0.11520425  0.041251748   0.29524093 
   32780     3883 0.00053994785 4.1934347e-05        0.006 0.0071388223  -0.11520425  0.041251748   0.29524093 
   32790     3883 0.00054464592 4.2048486e-05        0.006 0.0071378857  -0.11520425  0.041251748   0.29524093 
CFD Coupling established at step32800
   32800     3883 0.00054942579  4.21937e-05        0.006 0.0071369444  -0.11520425  0.041251748   0.29524093 
   32801     3883 0.00054990651 4.2202485e-05        0.006 0.0071368501  -0.11520425  0.041251748   0.29524093 
Loop time of 0.0244662 on 4 procs for 50 steps with 3883 atoms
Max time of 0.0244662 on 4 procs for 50 steps with 3883 atoms
run 50 pre no post no
Step Atoms KinEng rke Volume centerOf dragtota dragtota dragtota 
   32801     3883 0.00054990651 4.2202485e-05        0.006 0.0071368501  -0.17024806   0.13644097    0.3569145 
   32810     3883 0.00055503388 4.2363485e-05        0.006 0.0071360013  -0.17024806   0.13644097    0.3569145 
   32820     3883 0.00056080828 4.2572145e-05        0.006 0.0071350606  -0.17024806   0.13644097    0.3569145 
   32830     3883 0.00056659103 4.2824052e-05        0.006 0.0071341229  -0.17024806   0.13644097    0.3569145 
   32840     3883 0.0005722966 4.3106526e-05        0.006 0.0071331888  -0.17024806   0.13644097    0.3569145 
   32850     3883 0.00057800815 4.3298035e-05        0.006 0.0071322586  -0.17024806   0.13644097    0.3569145 
   32851     3883 0.00057857555 4.3321871e-05        0.006 0.0071321659  -0.17024806   0.13644097    0.3569145 
Loop time of 0.0225353 on 4 procs for 50 steps with 3883 atoms
Max time of 0.0225355 on 4 procs for 50 steps with 3883 atoms
run 50 pre no post no
Step Atoms KinEng rke Volume centerOf dragtota dragtota dragtota 
   32851     3883 0.00057857555 4.3321871e-05        0.006 0.0071321659  -0.16561037   0.12597297   0.31215267 
   32860     3883 0.00058345055 4.3586143e-05        0.006  0.007131331  -0.16561037   0.12597297   0.31215267 
   32870     3883 0.00058899903 4.3915222e-05        0.006 0.0071304029  -0.16561037   0.12597297   0.31215267 
   32880     3883 0.00059466707 4.4317988e-05        0.006 0.0071294743  -0.16561037   0.12597297   0.31215267 
   32890     3883 0.00060045606 4.4658988e-05        0.006 0.0071285455  -0.16561037   0.12597297   0.31215267 
CFD Coupling established at step32900
   32900     3883 0.00060627461 4.4935187e-05        0.006 0.0071276166  -0.16561037   0.12597297   0.31215267 
   32901     3883 0.0006068614 4.4954923e-05        0.006 0.0071275238  -0.16561037   0.12597297   0.31215267 
Loop time of 0.024027 on 4 procs for 50 steps with 3883 atoms
Max time of 0.0240272 on 4 procs for 50 steps with 3883 atoms
run 50 pre no post no
Step Atoms KinEng rke Volume centerOf dragtota dragtota dragtota 
   32901     3883 0.0006068614 4.4954923e-05        0.006 0.0071275238  -0.14322933   0.13209595   0.21239179 
   32910     3883 0.0006117272 4.5187906e-05        0.006 0.0071266836  -0.14322933   0.13209595   0.21239179 
   32920     3883 0.00061720044 4.5469881e-05        0.006 0.0071257395  -0.14322933   0.13209595   0.21239179 
   32930     3883 0.00062259935 4.5728823e-05        0.006 0.0071247848  -0.14322933   0.13209595   0.21239179 
   32940     3883 0.00062803367 4.5935173e-05        0.006 0.0071238201  -0.14322933   0.13209595   0.21239179 
   32950     3883 0.00063347359 4.6207642e-05        0.006 0.0071228457  -0.14322933   0.13209595   0.21239179 
   32951     3883 0.00063401844 4.6234843e-05        0.006 0.0071227477  -0.14322933   0.13209595   0.21239179 
Loop time of 0.01851 on 4 procs for 50 steps with 3883 atoms
Max time of 0.0185101 on 4 procs for 50 steps with 3883 atoms
run 50 pre no post no
Step Atoms KinEng rke Volume centerOf dragtota dragtota dragtota 
   32951     3883 0.00063401844 4.6234843e-05        0.006 0.0071227477  -0.12382293    0.1403372   0.22216546 
   32960     3883 0.00063791428 4.6482786e-05        0.006 0.0071218627  -0.12382293    0.1403372   0.22216546 
   32970     3883 0.00064222198 4.6826974e-05        0.006 0.0071208725  -0.12382293    0.1403372   0.22216546 
   32980     3883 0.00064657009 4.7163485e-05        0.006 0.0071198753  -0.12382293    0.1403372   0.22216546 
   32990     3883 0.00065086524 4.7515391e-05        0.006 0.0071188708  -0.12382293    0.1403372   0.22216546 
CFD Coupling established at step33000
   33000     3883 0.00065515662 4.7944832e-05        0.006 0.0071178591  -0.12382293    0.1403372   0.22216546 
   33001     3883 0.00065558959 4.7989488e-05        0.006 0.0071177576  -0.12382293    0.1403372   0.22216546 
Loop time of 0.023852 on 4 procs for 50 steps with 3883 atoms
Max time of 0.0238522 on 4 procs for 50 steps with 3883 atoms
run 50 pre no post no
Step Atoms KinEng rke Volume centerOf dragtota dragtota dragtota 
   33001     3883 0.00065558959 4.7989488e-05        0.006 0.0071177576  -0.19608573   0.13696178   0.40324159 
   33010     3883 0.00066061893 4.8398546e-05        0.006 0.0071168473  -0.19608573   0.13696178   0.40324159 
   33020     3883 0.00066635095 4.8850712e-05        0.006  0.007115847  -0.19608573   0.13696178   0.40324159 
   33030     3883 0.00067216898 4.9367143e-05        0.006 0.0071148587  -0.19608573   0.13696178   0.40324159 
   33040     3883 0.00067806446 4.9879498e-05        0.006 0.0071138823  -0.19608573   0.13696178   0.40324159 
   33050     3883 0.00068387294 5.0462164e-05        0.006 0.0071129176  -0.19608573   0.13696178   0.40324159 
   33051     3883 0.00068447075 5.0520108e-05        0.006 0.0071128218  -0.19608573   0.13696178   0.40324159 
Loop time of 0.025333 on 4 procs for 50 steps with 3883 atoms
Max time of 0.0253331 on 4 procs for 50 steps with 3883 atoms
run 50 pre no post no
Step Atoms KinEng rke Volume centerOf dragtota dragtota dragtota 
   33051     3883 0.00068447075 5.0520108e-05        0.006 0.0071128218   -0.1475559    0.1486967   0.30073302 
   33060     3883 0.00068919824 5.0981397e-05        0.006 0.0071119605   -0.1475559    0.1486967   0.30073302 
   33070     3883 0.00069466042 5.142578e-05        0.006 0.0071110031   -0.1475559    0.1486967   0.30073302 
   33080     3883 0.0007003184 5.1733682e-05        0.006  0.007110044   -0.1475559    0.1486967   0.30073302 
   33090     3883 0.00070598811 5.1990765e-05        0.006 0.0071090818   -0.1475559    0.1486967   0.30073302 
CFD Coupling established at step33100
   33100     3883 0.00071163153 5.2299423e-05        0.006 0.0071081154   -0.1475559    0.1486967   0.30073302 
   33101     3883 0.00071219493 5.2330184e-05        0.006 0.0071080185   -0.1475559    0.1486967   0.30073302 
Loop time of 0.0237749 on 4 procs for 50 steps with 3883 atoms
Max time of 0.0237751 on 4 procs for 50 steps with 3883 atoms
run 50 pre no post no
Step Atoms KinEng rke Volume centerOf dragtota dragtota dragtota 
   33101     3883 0.00071219493 5.2330184e-05        0.006 0.0071080185  -0.14815944   0.11606761   0.26804412 
   33110     3883 0.00071748804 5.2682397e-05        0.006 0.0071071431  -0.14815944   0.11606761   0.26804412 
   33120     3883 0.00072334984 5.3065393e-05        0.006 0.0071061628  -0.14815944   0.11606761   0.26804412 
   33130     3883 0.00072921898 5.3485598e-05        0.006 0.0071051745  -0.14815944   0.11606761   0.26804412 
   33140     3883 0.00073523518 5.3914408e-05        0.006 0.0071041778  -0.14815944   0.11606761   0.26804412 
   33150     3883 0.00074132647 5.4286224e-05        0.006 0.0071031727  -0.14815944   0.11606761   0.26804412 
   33151     3883 0.00074194233 5.4322495e-05        0.006 0.0071030717  -0.14815944   0.11606761   0.26804412 
Loop time of 0.0164791 on 4 procs for 50 steps with 3883 atoms
Max time of 0.0164793 on 4 procs for 50 steps with 3883 atoms
run 50 pre no post no
Step Atoms KinEng rke Volume centerOf dragtota dragtota dragtota 
   33151     3883 0.00074194233 5.4322495e-05        0.006 0.0071030717   -0.1664612  0.098156419   0.30613781 
   33160     3883 0.00074765627 5.4637715e-05        0.006   0.00710216   -0.1664612  0.098156419   0.30613781 
   33170     3883 0.00075396524 5.4881438e-05        0.006 0.0071011418   -0.1664612  0.098156419   0.30613781 
   33180     3883 0.00076030588 5.5213085e-05        0.006 0.0071001179   -0.1664612  0.098156419   0.30613781 
   33190     3883 0.00076658256 5.5555461e-05        0.006 0.0070990885   -0.1664612  0.098156419   0.30613781 
CFD Coupling established at step33200
   33200     3883 0.00077292463 5.595845e-05        0.006 0.0070980538   -0.1664612  0.098156419   0.30613781 
   33201     3883 0.00077355999 5.6000153e-05        0.006   0.00709795   -0.1664612  0.098156419   0.30613781 
Loop time of 0.0179166 on 4 procs for 50 steps with 3883 atoms
Max time of 0.0179167 on 4 procs for 50 steps with 3883 atoms
run 50 pre no post no
Step Atoms KinEng rke Volume centerOf dragtota dragtota dragtota 
   33201     3883 0.00077355999 5.6000153e-05        0.006   0.00709795  -0.15626867   0.11946745    0.2769871 
   33210     3883 0.00077917455 5.6348058e-05        0.006 0.0070970128  -0.15626867   0.11946745    0.2769871 
   33220     3883 0.00078535496 5.6798033e-05        0.006 0.0070959644  -0.15626867   0.11946745    0.2769871 
   33230     3883 0.00079159203 5.7251123e-05        0.006 0.0070949088  -0.15626867   0.11946745    0.2769871 
   33240     3883 0.00079783548 5.761834e-05        0.006 0.0070938465  -0.15626867   0.11946745    0.2769871 
   33250     3883 0.00080399427 5.7949561e-05        0.006 0.0070927778  -0.15626867   0.11946745    0.2769871 
   33251     3883 0.00080458232 5.7948221e-05        0.006 0.0070926706  -0.15626867   0.11946745    0.2769871 
Loop time of 0.0178776 on 4 procs for 50 steps with 3883 atoms
Max time of 0.0178779 on 4 procs for 50 steps with 3883 atoms
run 50 pre no post no
Step Atoms KinEng rke Volume centerOf dragtota dragtota dragtota 
   33251     3883 0.00080458232 5.7948221e-05        0.006 0.0070926706  -0.15625952   0.17026107   0.27069838 
   33260     3883 0.00080984888 5.8145805e-05        0.006 0.0070917027  -0.15625952   0.17026107   0.27069838 
   33270     3883 0.00081590662 5.8411016e-05        0.006 0.0070906209  -0.15625952   0.17026107   0.27069838 
   33280     3883 0.00082190027 5.868053e-05        0.006 0.0070895327  -0.15625952   0.17026107   0.27069838 
   33290     3883 0.00082784315 5.9004804e-05        0.006 0.0070884385  -0.15625952   0.17026107   0.27069838 
CFD Coupling established at step33300
   33300     3883 0.00083368901 5.9402992e-05        0.006  0.007087339  -0.15625952   0.17026107   0.27069838 
   33301     3883 0.00083428258 5.944661e-05        0.006 0.0070872287  -0.15625952   0.17026107   0.27069838 
Loop time of 0.0241299 on 4 procs for 50 steps with 3883 atoms
Max time of 0.0241301 on 4 procs for 50 steps with 3883 atoms
run 50 pre no post no
Step Atoms KinEng rke Volume centerOf dragtota dragtota dragtota 
   33301     3883 0.00083428258 5.944661e-05        0.006 0.0070872287  -0.18352222   0.12447625   0.26735651 
   33310     3883 0.0008396782 5.9775992e-05        0.006 0.0070862348  -0.18352222   0.12447625   0.26735651 
   33320     3883 0.00084560156 6.0106106e-05        0.006 0.0070851262  -0.18352222   0.12447625   0.26735651 
   33330     3883 0.00085160825 6.050142e-05        0.006 0.0070840137  -0.18352222   0.12447625   0.26735651 
   33340     3883 0.00085779212 6.0894253e-05        0.006 0.0070828972  -0.18352222   0.12447625   0.26735651 
   33350     3883 0.00086416088 6.1323189e-05        0.006 0.0070817762  -0.18352222   0.12447625   0.26735651 
   33351     3883 0.0008648079 6.1357977e-05        0.006 0.0070816639  -0.18352222   0.12447625   0.26735651 
Loop time of 0.0237889 on 4 procs for 50 steps with 3883 atoms
Max time of 0.023789 on 4 procs for 50 steps with 3883 atoms
run 50 pre no post no
Step Atoms KinEng rke Volume centerOf dragtota dragtota dragtota 
   33351     3883 0.0008648079 6.1357977e-05        0.006 0.0070816639  -0.19664202   0.14701261   0.32358247 
   33360     3883 0.00087112599 6.175273e-05        0.006 0.0070806526  -0.19664202   0.14701261   0.32358247 
   33370     3883 0.00087834595 6.2229583e-05        0.006 0.0070795293  -0.19664202   0.14701261   0.32358247 
   33380     3883 0.00088553812 6.2624745e-05        0.006 0.0070784059  -0.19664202   0.14701261   0.32358247 
   33390     3883 0.00089283054 6.3060121e-05        0.006 0.0070772818  -0.19664202   0.14701261   0.32358247 
CFD Coupling established at step33400
   33400     3883 0.00090016013 6.3413518e-05        0.006 0.0070761563  -0.19664202   0.14701261   0.32358247 
   33401     3883 0.00090089305 6.3442305e-05        0.006 0.0070760437  -0.19664202   0.14701261   0.32358247 
Loop time of 0.0237084 on 4 procs for 50 steps with 3883 atoms
Max time of 0.0237086 on 4 procs for 50 steps with 3883 atoms
run 50 pre no post no
Step Atoms KinEng rke Volume centerOf dragtota dragtota dragtota 
   33401     3883 0.00090089305 6.3442305e-05        0.006 0.0070760437  -0.20533313   0.13971831   0.37378071 
   33410     3883 0.00090771287 6.3746924e-05        0.006 0.0070750311  -0.20533313   0.13971831   0.37378071 
   33420     3883 0.00091539516 6.4140442e-05        0.006 0.0070739091  -0.20533313   0.13971831   0.37378071 
   33430     3883 0.00092316723 6.4458602e-05        0.006 0.0070727901  -0.20533313   0.13971831   0.37378071 
   33440     3883 0.00093080977 6.4759968e-05        0.006 0.0070716739  -0.20533313   0.13971831   0.37378071 
   33450     3883 0.00093850034 6.4994385e-05        0.006 0.0070705602  -0.20533313   0.13971831   0.37378071 
   33451     3883 0.00093926496 6.5022687e-05        0.006 0.0070704489  -0.20533313   0.13971831   0.37378071 
Loop time of 0.0234512 on 4 procs for 50 steps with 3883 atoms
Max time of 0.0234514 on 4 procs for 50 steps with 3883 atoms
run 50 pre no post no
Step Atoms KinEng rke Volume centerOf dragtota dragtota dragtota 
   33451     3883 0.00093926496 6.5022687e-05        0.006 0.0070704489  -0.24029991   0.11502499   0.42436674 
   33460     3883 0.00094613243 6.5318162e-05        0.006 0.0070694505  -0.24029991   0.11502499   0.42436674 
   33470     3883 0.00095368329 6.5656361e-05        0.006 0.0070683486  -0.24029991   0.11502499   0.42436674 
   33480     3883 0.00096150954 6.6010016e-05        0.006 0.0070672547  -0.24029991   0.11502499   0.42436674 
   33490     3883 0.00096947427 6.6285464e-05        0.006 0.0070661681  -0.24029991   0.11502499   0.42436674 
CFD Coupling established at step33500
   33500     3883 0.00097730461 6.6345825e-05        0.006  0.007065088  -0.24029991   0.11502499   0.42436674 
   33501     3883 0.00097808933 6.6341431e-05        0.006 0.0070649803  -0.24029991   0.11502499   0.42436674 
Loop time of 0.0246626 on 4 procs for 50 steps with 3883 atoms
Max time of 0.024663 on 4 procs for 50 steps with 3883 atoms
run 50 pre no post no
Step Atoms KinEng rke Volume centerOf dragtota dragtota dragtota 
   33501     3883 0.00097808933 6.6341431e-05        0.006 0.0070649803  -0.24129071   0.14104945   0.43030987 
   33510     3883 0.00098572254 6.6521634e-05        0.006 0.0070640139  -0.24129071   0.14104945   0.43030987 
   33520     3883 0.00099420866 6.687272e-05        0.006  0.007062946  -0.24129071   0.14104945   0.43030987 
   33530     3883 0.0010024213 6.7322305e-05        0.006 0.0070618852  -0.24129071   0.14104945   0.43030987 
   33540     3883 0.0010106229 6.7883097e-05        0.006 0.0070608329  -0.24129071   0.14104945   0.43030987 
   33550     3883 0.0010188671 6.8320269e-05        0.006 0.0070597897  -0.24129071   0.14104945   0.43030987 
   33551     3883 0.0010197007 6.8371425e-05        0.006 0.0070596858  -0.24129071   0.14104945   0.43030987 
Loop time of 0.0245018 on 4 procs for 50 steps with 3883 atoms
Max time of 0.0245031 on 4 procs for 50 steps with 3883 atoms
run 50 pre no post no
Step Atoms KinEng rke Volume centerOf dragtota dragtota dragtota 
   33551     3883 0.0010197007 6.8371425e-05        0.006 0.0070596858  -0.18290082   0.12423466   0.26245717 
   33560     3883 0.0010265161 6.8835398e-05        0.006 0.0070587487  -0.18290082   0.12423466   0.26245717 
   33570     3883 0.0010343033 6.9412645e-05        0.006 0.0070576984  -0.18290082   0.12423466   0.26245717 
   33580     3883 0.0010421803 7.0039464e-05        0.006 0.0070566378  -0.18290082   0.12423466   0.26245717 
   33590     3883 0.0010500863 7.0631306e-05        0.006 0.0070555664  -0.18290082   0.12423466   0.26245717 
CFD Coupling established at step33600
   33600     3883  0.001057968 7.1113427e-05        0.006 0.0070544841  -0.18290082   0.12423466   0.26245717 
   33601     3883 0.0010587761 7.1164125e-05        0.006 0.0070543752  -0.18290082   0.12423466   0.26245717 
Loop time of 0.02393 on 4 procs for 50 steps with 3883 atoms
Max time of 0.0239302 on 4 procs for 50 steps with 3883 atoms
run 50 pre no post no
Step Atoms KinEng rke Volume centerOf dragtota dragtota dragtota 
   33601     3883 0.0010587761 7.1164125e-05        0.006 0.0070543752  -0.20340329   0.11198268   0.32614978 
   33610     3883 0.0010668125 7.1514547e-05        0.006 0.0070533924  -0.20340329   0.11198268   0.32614978 
   33620     3883 0.0010759695 7.1977054e-05        0.006 0.0070522941  -0.20340329   0.11198268   0.32614978 
   33630     3883 0.0010852086 7.2379759e-05        0.006  0.007051188  -0.20340329   0.11198268   0.32614978 
[...]
   69020     3883 0.00061410118 0.00024083012        0.006 0.0067485949  0.078373775 0.0063346566   0.36468335 
   69030     3883 0.00061423567 0.00024062005        0.006 0.0067469892  0.078373775 0.0063346566   0.36468335 
   69040     3883 0.00061435183 0.00024043841        0.006 0.0067453819  0.078373775 0.0063346566   0.36468335 
   69050     3883 0.00061439329 0.00024033935        0.006 0.0067437729  0.078373775 0.0063346566   0.36468335 
   69051     3883 0.00061439625 0.00024032918        0.006 0.0067436118  0.078373775 0.0063346566   0.36468335 
Loop time of 0.015634 on 4 procs for 50 steps with 3883 atoms
Max time of 0.0156341 on 4 procs for 50 steps with 3883 atoms
run 50 pre no post no
Step Atoms KinEng rke Volume centerOf dragtota dragtota dragtota 
   69051     3883 0.00061439625 0.00024032918        0.006 0.0067436118  0.079737497 0.0043964164   0.35715483 
   69060     3883 0.00061433901 0.0002402002        0.006 0.0067421619  0.079737497 0.0043964164   0.35715483 
   69070     3883 0.00061423467 0.00024007278        0.006 0.0067405493  0.079737497 0.0043964164   0.35715483 
   69080     3883 0.00061418659 0.00024000836        0.006 0.0067389351  0.079737497 0.0043964164   0.35715483 
   69090     3883 0.00061431136 0.00023996801        0.006 0.0067373195  0.079737497 0.0043964164   0.35715483 
CFD Coupling established at step69100
   69100     3883 0.00061445575 0.0002398746        0.006 0.0067357019  0.079737497 0.0043964164   0.35715483 
   69101     3883 0.00061445961 0.00023986963        0.006   0.00673554  0.079737497 0.0043964164   0.35715483 
Loop time of 0.015825 on 4 procs for 50 steps with 3883 atoms
Max time of 0.0158289 on 4 procs for 50 steps with 3883 atoms
run 50 pre no post no
Step Atoms KinEng rke Volume centerOf dragtota dragtota dragtota 
   69101     3883 0.00061445961 0.00023986963        0.006   0.00673554  0.074455389 -0.0016538646   0.38191661 
   69110     3883 0.00061458192 0.00023976458        0.006 0.0067340831  0.074455389 -0.0016538646   0.38191661 
   69120     3883 0.0006147925 0.00023963421        0.006 0.0067324639  0.074455389 -0.0016538646   0.38191661 
   69130     3883 0.00061503032 0.00023949546        0.006 0.0067308437  0.074455389 -0.0016538646   0.38191661 
   69140     3883 0.00061523005 0.00023930747        0.006 0.0067292222  0.074455389 -0.0016538646   0.38191661 
   69150     3883 0.00061545735 0.00023913532        0.006 0.0067275986  0.074455389 -0.0016538646   0.38191661 
   69151     3883 0.0006154803 0.0002391159        0.006 0.0067274361  0.074455389 -0.0016538646   0.38191661 
Loop time of 0.0149574 on 4 procs for 50 steps with 3883 atoms
Max time of 0.0149577 on 4 procs for 50 steps with 3883 atoms
run 50 pre no post no
Step Atoms KinEng rke Volume centerOf dragtota dragtota dragtota 
   69151     3883 0.0006154803 0.0002391159        0.006 0.0067274361  0.063197933 0.0028341957   0.37327825 
   69160     3883 0.00061571332 0.00023887224        0.006 0.0067259722  0.063197933 0.0028341957   0.37327825 
   69170     3883 0.00061591199 0.00023863633        0.006 0.0067243424  0.063197933 0.0028341957   0.37327825 
   69180     3883 0.00061612593 0.00023845951        0.006 0.0067227093  0.063197933 0.0028341957   0.37327825 
   69190     3883 0.00061642334 0.0002383128        0.006 0.0067210735  0.063197933 0.0028341957   0.37327825 
CFD Coupling established at step69200
   69200     3883 0.00061669376 0.00023814426        0.006  0.006719435  0.063197933 0.0028341957   0.37327825 
   69201     3883 0.00061672108 0.00023812404        0.006  0.006719271  0.063197933 0.0028341957   0.37327825 
Loop time of 0.0149475 on 4 procs for 50 steps with 3883 atoms
Max time of 0.0149476 on 4 procs for 50 steps with 3883 atoms
run 50 pre no post no
Step Atoms KinEng rke Volume centerOf dragtota dragtota dragtota 
   69201     3883 0.00061672108 0.00023812404        0.006  0.006719271  0.077563137 0.0072399051   0.36000138 
   69210     3883 0.00061678177 0.00023774691        0.006 0.0067177933  0.077563137 0.0072399051   0.36000138 
   69220     3883 0.00061683038 0.00023744109        0.006 0.0067161482  0.077563137 0.0072399051   0.36000138 
   69230     3883 0.00061687016 0.00023714104        0.006 0.0067145007  0.077563137 0.0072399051   0.36000138 
   69240     3883 0.00061705553 0.00023698061        0.006 0.0067128518  0.077563137 0.0072399051   0.36000138 
   69250     3883 0.00061738859 0.00023677715        0.006 0.0067112012  0.077563137 0.0072399051   0.36000138 
   69251     3883 0.0006174227 0.00023676474        0.006  0.006711036  0.077563137 0.0072399051   0.36000138 
Loop time of 0.0150181 on 4 procs for 50 steps with 3883 atoms
Max time of 0.0150182 on 4 procs for 50 steps with 3883 atoms
run 50 pre no post no
Step Atoms KinEng rke Volume centerOf dragtota dragtota dragtota 
   69251     3883 0.0006174227 0.00023676474        0.006  0.006711036  0.082799889 0.0075719864   0.35105091 
   69260     3883 0.00061774411 0.00023662789        0.006 0.0067095478  0.082799889 0.0075719864   0.35105091 
   69270     3883 0.00061808755   0.00023628        0.006 0.0067078904  0.082799889 0.0075719864   0.35105091 
   69280     3883 0.00061839316 0.00023593852        0.006 0.0067062281  0.082799889 0.0075719864   0.35105091 
   69290     3883 0.00061875569 0.00023565816        0.006 0.0067045604  0.082799889 0.0075719864   0.35105091 
CFD Coupling established at step69300
   69300     3883 0.00061909009 0.00023535338        0.006  0.006702887  0.082799889 0.0075719864   0.35105091 
   69301     3883 0.00061912681 0.00023532844        0.006 0.0067027194  0.082799889 0.0075719864   0.35105091 
Loop time of 0.014915 on 4 procs for 50 steps with 3883 atoms
Max time of 0.0149152 on 4 procs for 50 steps with 3883 atoms
run 50 pre no post no
Step Atoms KinEng rke Volume centerOf dragtota dragtota dragtota 
   69301     3883 0.00061912681 0.00023532844        0.006 0.0067027194  0.084089228 0.0082687479   0.34489892 
   69310     3883 0.00061950782 0.00023513543        0.006 0.0067012075  0.084089228 0.0082687479   0.34489892 
   69320     3883 0.00061993147 0.00023486687        0.006 0.0066995211  0.084089228 0.0082687479   0.34489892 
   69330     3883 0.00062024716 0.00023454778        0.006 0.0066978277  0.084089228 0.0082687479   0.34489892 
   69340     3883 0.00062059862 0.00023427847        0.006 0.0066961275  0.084089228 0.0082687479   0.34489892 
   69350     3883 0.00062095168 0.00023406452        0.006 0.0066944211  0.084089228 0.0082687479   0.34489892 
   69351     3883 0.00062098836 0.00023404581        0.006 0.0066942502  0.084089228 0.0082687479   0.34489892 
Loop time of 0.0151038 on 4 procs for 50 steps with 3883 atoms
Max time of 0.0151039 on 4 procs for 50 steps with 3883 atoms
run 50 pre no post no
Step Atoms KinEng rke Volume centerOf dragtota dragtota dragtota 
   69351     3883 0.00062098836 0.00023404581        0.006 0.0066942502  0.078145272 0.0031409212   0.35088205 
   69360     3883 0.00062133928 0.00023389716        0.006 0.0066927093  0.078145272 0.0031409212   0.35088205 
   69370     3883 0.00062172119 0.00023369982        0.006 0.0066909927  0.078145272 0.0031409212   0.35088205 
   69380     3883 0.00062205353 0.00023345354        0.006 0.0066892718  0.078145272 0.0031409212   0.35088205 
   69390     3883 0.00062244267 0.00023329788        0.006 0.0066875467  0.078145272 0.0031409212   0.35088205 
CFD Coupling established at step69400
   69400     3883 0.00062283515 0.00023314981        0.006 0.0066858176  0.078145272 0.0031409212   0.35088205 
   69401     3883 0.00062286983 0.00023313563        0.006 0.0066856445  0.078145272 0.0031409212   0.35088205 
Loop time of 0.0128374 on 4 procs for 50 steps with 3883 atoms
Max time of 0.0128375 on 4 procs for 50 steps with 3883 atoms
run 50 pre no post no
Step Atoms KinEng rke Volume centerOf dragtota dragtota dragtota 
   69401     3883 0.00062286983 0.00023313563        0.006 0.0066856445  0.078643265  0.002257164   0.35268014 
   69410     3883 0.00062321181 0.00023301901        0.006 0.0066840847  0.078643265  0.002257164   0.35268014 
   69420     3883 0.00062356148 0.00023292573        0.006 0.0066823479  0.078643265  0.002257164   0.35268014 
   69430     3883 0.00062391026 0.00023281761        0.006 0.0066806072  0.078643265  0.002257164   0.35268014 
   69440     3883 0.00062412339 0.00023263699        0.006 0.0066788632  0.078643265  0.002257164   0.35268014 
   69450     3883 0.00062430181 0.00023241089        0.006 0.0066771166  0.078643265  0.002257164   0.35268014 
   69451     3883 0.00062430465 0.00023237009        0.006 0.0066769418  0.078643265  0.002257164   0.35268014 
Loop time of 0.0151204 on 4 procs for 50 steps with 3883 atoms
Max time of 0.0151209 on 4 procs for 50 steps with 3883 atoms
run 50 pre no post no
Step Atoms KinEng rke Volume centerOf dragtota dragtota dragtota 
   69451     3883 0.00062430465 0.00023237009        0.006 0.0066769418  0.072013501 0.0032739214   0.33960615 
   69460     3883 0.00062439192 0.00023215788        0.006 0.0066753669  0.072013501 0.0032739214   0.33960615 
   69470     3883 0.00062468826 0.00023193531        0.006 0.0066736128  0.072013501 0.0032739214   0.33960615 
   69480     3883 0.00062509928 0.00023177024        0.006  0.006671854  0.072013501 0.0032739214   0.33960615 
   69490     3883 0.00062552968 0.00023166124        0.006   0.00667009  0.072013501 0.0032739214   0.33960615 
CFD Coupling established at step69500
   69500     3883 0.00062595897 0.00023156069        0.006 0.0066683206  0.072013501 0.0032739214   0.33960615 
   69501     3883 0.00062600305 0.00023155179        0.006 0.0066681433  0.072013501 0.0032739214   0.33960615 
Loop time of 0.0181142 on 4 procs for 50 steps with 3883 atoms
Max time of 0.0181144 on 4 procs for 50 steps with 3883 atoms
run 50 pre no post no
Step Atoms KinEng rke Volume centerOf dragtota dragtota dragtota 
   69501     3883 0.00062600305 0.00023155179        0.006 0.0066681433  0.086493998 0.0015446887   0.33834835 
   69510     3883 0.00062637905 0.00023148283        0.006 0.0066665458  0.086493998 0.0015446887   0.33834835 
   69520     3883 0.00062686186 0.00023141354        0.006 0.0066647655  0.086493998 0.0015446887   0.33834835 
   69530     3883 0.00062737694 0.00023136619        0.006 0.0066629797  0.086493998 0.0015446887   0.33834835 
   69540     3883 0.00062787781 0.00023127799        0.006 0.0066611884  0.086493998 0.0015446887   0.33834835 
   69550     3883 0.00062839065 0.00023119405        0.006 0.0066593917  0.086493998 0.0015446887   0.33834835 
   69551     3883 0.00062844347 0.00023118827        0.006 0.0066592118  0.086493998 0.0015446887   0.33834835 
Loop time of 0.0161176 on 4 procs for 50 steps with 3883 atoms
Max time of 0.0161176 on 4 procs for 50 steps with 3883 atoms
run 50 pre no post no
Step Atoms KinEng rke Volume centerOf dragtota dragtota dragtota 
   69551     3883 0.00062844347 0.00023118827        0.006 0.0066592118  0.085236841 0.0032018869   0.34941823 
   69560     3883 0.00062883634 0.00023113367        0.006 0.0066575903  0.085236841 0.0032018869   0.34941823 
   69570     3883 0.00062921173 0.00023102698        0.006 0.0066557849  0.085236841 0.0032018869   0.34941823 
   69580     3883 0.00062943804 0.00023070414        0.006  0.006653976  0.085236841 0.0032018869   0.34941823 
   69590     3883 0.00062967826 0.00023049685        0.006 0.0066521647  0.085236841 0.0032018869   0.34941823 
CFD Coupling established at step69600
   69600     3883 0.00063002546 0.00023034701        0.006 0.0066503517  0.085236841 0.0032018869   0.34941823 
   69601     3883 0.00063003846 0.00023033275        0.006 0.0066501703  0.085236841 0.0032018869   0.34941823 
Loop time of 0.0121717 on 4 procs for 50 steps with 3883 atoms
Max time of 0.0121718 on 4 procs for 50 steps with 3883 atoms
run 50 pre no post no
Step Atoms KinEng rke Volume centerOf dragtota dragtota dragtota 
   69601     3883 0.00063003846 0.00023033275        0.006 0.0066501703  0.083225611  0.001234715   0.34846911 
   69610     3883 0.00063020701 0.00023027756        0.006 0.0066485379  0.083225611  0.001234715   0.34846911 
   69620     3883 0.0006304219 0.0002302438        0.006  0.006646724  0.083225611  0.001234715   0.34846911 
   69630     3883 0.00063062473 0.00023012239        0.006 0.0066449098  0.083225611  0.001234715   0.34846911 
   69640     3883 0.00063093648 0.00023007835        0.006 0.0066430956  0.083225611  0.001234715   0.34846911 
   69650     3883 0.00063133523 0.00022997004        0.006 0.0066412809  0.083225611  0.001234715   0.34846911 
   69651     3883 0.00063137597 0.00022994678        0.006 0.0066410994  0.083225611  0.001234715   0.34846911 
Loop time of 0.015048 on 4 procs for 50 steps with 3883 atoms
Max time of 0.0150481 on 4 procs for 50 steps with 3883 atoms
run 50 pre no post no
Step Atoms KinEng rke Volume centerOf dragtota dragtota dragtota 
   69651     3883 0.00063137597 0.00022994678        0.006 0.0066410994  0.080738378 0.0065981075    0.3394617 
   69660     3883 0.00063171436 0.00022986211        0.006 0.0066394653  0.080738378 0.0065981075    0.3394617 
   69670     3883 0.0006321604 0.00022976609        0.006 0.0066376479  0.080738378 0.0065981075    0.3394617 
   69680     3883 0.00063265098 0.0002296852        0.006 0.0066358284  0.080738378 0.0065981075    0.3394617 
   69690     3883 0.00063307652 0.00022962413        0.006 0.0066340068  0.080738378 0.0065981075    0.3394617 
CFD Coupling established at step69700
   69700     3883 0.00063350067 0.00022958221        0.006 0.0066321828  0.080738378 0.0065981075    0.3394617 
   69701     3883 0.00063353198 0.00022956039        0.006 0.0066320002  0.080738378 0.0065981075    0.3394617 
Loop time of 0.0126636 on 4 procs for 50 steps with 3883 atoms
Max time of 0.0126636 on 4 procs for 50 steps with 3883 atoms
run 50 pre no post no
Step Atoms KinEng rke Volume centerOf dragtota dragtota dragtota 
   69701     3883 0.00063353198 0.00022956039        0.006 0.0066320002  0.079145532 0.0040759832   0.34505286 
   69710     3883 0.00063372922 0.00022936293        0.006  0.006630356  0.079145532 0.0040759832   0.34505286 
   69720     3883 0.00063407315 0.00022923802        0.006 0.0066285269  0.079145532 0.0040759832   0.34505286 
   69730     3883 0.00063447619 0.0002291235        0.006 0.0066266955  0.079145532 0.0040759832   0.34505286 
   69740     3883 0.00063484997 0.00022898011        0.006  0.006624862  0.079145532 0.0040759832   0.34505286 
   69750     3883 0.00063519178 0.00022892247        0.006 0.0066230268  0.079145532 0.0040759832   0.34505286 
   69751     3883 0.0006352166 0.0002289195        0.006 0.0066228432  0.079145532 0.0040759832   0.34505286 
Loop time of 0.0156425 on 4 procs for 50 steps with 3883 atoms
Max time of 0.0156428 on 4 procs for 50 steps with 3883 atoms
run 50 pre no post no
Step Atoms KinEng rke Volume centerOf dragtota dragtota dragtota 
   69751     3883 0.0006352166 0.0002289195        0.006 0.0066228432  0.073333963 0.0031509156   0.37192582 
   69760     3883 0.00063544827 0.00022889111        0.006 0.0066211913  0.073333963 0.0031509156   0.37192582 
   69770     3883 0.00063573913 0.00022877671        0.006 0.0066193575  0.073333963 0.0031509156   0.37192582 
   69780     3883 0.0006360945 0.00022861409        0.006 0.0066175249  0.073333963 0.0031509156   0.37192582 
   69790     3883 0.0006365667 0.00022848952        0.006 0.0066156927  0.073333963 0.0031509156   0.37192582 
CFD Coupling established at step69800
   69800     3883 0.00063701705 0.00022833129        0.006 0.0066138602  0.073333963 0.0031509156   0.37192582 
   69801     3883 0.0006370512 0.00022830055        0.006 0.0066136769  0.073333963 0.0031509156   0.37192582 
Loop time of 0.0123595 on 4 procs for 50 steps with 3883 atoms
Max time of 0.0123599 on 4 procs for 50 steps with 3883 atoms
run 50 pre no post no
Step Atoms KinEng rke Volume centerOf dragtota dragtota dragtota 
   69801     3883 0.0006370512 0.00022830055        0.006 0.0066136769   0.09600609  0.010258007   0.34545073 
   69810     3883 0.00063729146 0.00022807408        0.006 0.0066120263   0.09600609  0.010258007   0.34545073 
   69820     3883 0.00063761847 0.00022794828        0.006 0.0066101893   0.09600609  0.010258007   0.34545073 
   69830     3883 0.0006380843 0.00022786022        0.006 0.0066083488   0.09600609  0.010258007   0.34545073 
   69840     3883 0.00063846537 0.00022774151        0.006 0.0066065044   0.09600609  0.010258007   0.34545073 
   69850     3883 0.00063877371 0.00022756236        0.006 0.0066046565   0.09600609  0.010258007   0.34545073 
   69851     3883 0.00063879925 0.00022754703        0.006 0.0066044715   0.09600609  0.010258007   0.34545073 
Loop time of 0.0131148 on 4 procs for 50 steps with 3883 atoms
Max time of 0.0131149 on 4 procs for 50 steps with 3883 atoms
run 50 pre no post no
Step Atoms KinEng rke Volume centerOf dragtota dragtota dragtota 
   69851     3883 0.00063879925 0.00022754703        0.006 0.0066044715  0.089453037 0.0048724916   0.33483273 
   69860     3883 0.00063908321 0.00022734823        0.006 0.0066028054  0.089453037 0.0048724916   0.33483273 
   69870     3883 0.00063947171 0.0002270584        0.006 0.0066009514  0.089453037 0.0048724916   0.33483273 
   69880     3883 0.00063983312 0.0002267836        0.006 0.0065990949  0.089453037 0.0048724916   0.33483273 
   69890     3883 0.00064021308 0.00022649935        0.006 0.0065972358  0.089453037 0.0048724916   0.33483273 
CFD Coupling established at step69900
   69900     3883 0.0006405848 0.00022629129        0.006 0.0065953738  0.089453037 0.0048724916   0.33483273 
   69901     3883 0.00064063118 0.00022627765        0.006 0.0065951874  0.089453037 0.0048724916   0.33483273 
Loop time of 0.0154107 on 4 procs for 50 steps with 3883 atoms
Max time of 0.0154108 on 4 procs for 50 steps with 3883 atoms
run 50 pre no post no
Step Atoms KinEng rke Volume centerOf dragtota dragtota dragtota 
   69901     3883 0.00064063118 0.00022627765        0.006 0.0065951874  0.088503326  0.010186342   0.34957631 
   69910     3883 0.00064083618 0.00022609708        0.006  0.006593509  0.088503326  0.010186342   0.34957631 
   69920     3883 0.00064106894 0.00022596495        0.006 0.0065916432  0.088503326  0.010186342   0.34957631 
   69930     3883 0.00064140583 0.00022583487        0.006 0.0065897771  0.088503326  0.010186342   0.34957631 
   69940     3883 0.00064177855 0.00022567769        0.006 0.0065879109  0.088503326  0.010186342   0.34957631 
   69950     3883 0.00064202869 0.00022539921        0.006 0.0065860441  0.088503326  0.010186342   0.34957631 
   69951     3883 0.00064206135 0.00022537841        0.006 0.0065858574  0.088503326  0.010186342   0.34957631 
Loop time of 0.0120972 on 4 procs for 50 steps with 3883 atoms
Max time of 0.0120974 on 4 procs for 50 steps with 3883 atoms
run 50 pre no post no
Step Atoms KinEng rke Volume centerOf dragtota dragtota dragtota 
   69951     3883 0.00064206135 0.00022537841        0.006 0.0065858574  0.090770721 0.0095958031   0.34609763 
   69960     3883 0.00064236667 0.00022521173        0.006 0.0065841759  0.090770721 0.0095958031   0.34609763 
   69970     3883 0.0006427024 0.0002250778        0.006 0.0065823059  0.090770721 0.0095958031   0.34609763 
   69980     3883 0.00064307258 0.00022493115        0.006 0.0065804338  0.090770721 0.0095958031   0.34609763 
   69990     3883 0.00064338529 0.00022477033        0.006 0.0065785594  0.090770721 0.0095958031   0.34609763 
CFD Coupling established at step70000
   70000     3883 0.00064371358 0.00022453647        0.006  0.006576683  0.090770721 0.0095958031   0.34609763 
   70001     3883 0.00064374206 0.00022451664        0.006 0.0065764953  0.090770721 0.0095958031   0.34609763 
Loop time of 0.0195633 on 4 procs for 50 steps with 3883 atoms
Max time of 0.0195636 on 4 procs for 50 steps with 3883 atoms
